 vasp.5.4.4.18Apr17-6-g9f103f2a35 (build Aug 21 2019 12:36:18) complex          
  
 executed on IFC18.0.1.163_CrayMP date 2019.08.24  14:18:56
 running on  330 total cores
 distrk:  each k-point on   66 cores,    5 groups
 distr:  one band on NCORES_PER_BAND=  11 cores,    6 groups


--------------------------------------------------------------------------------------------------------


 INCAR:
 POTCAR:    PAW_PBE O 08Apr2002                   
 POTCAR:    PAW_PBE Ir 06Sep2000                  

 ----------------------------------------------------------------------------- 
|                                                                             |
|           W    W    AA    RRRRR   N    N  II  N    N   GGGG   !!!           |
|           W    W   A  A   R    R  NN   N  II  NN   N  G    G  !!!           |
|           W    W  A    A  R    R  N N  N  II  N N  N  G       !!!           |
|           W WW W  AAAAAA  RRRRR   N  N N  II  N  N N  G  GGG   !            |
|           WW  WW  A    A  R   R   N   NN  II  N   NN  G    G                |
|           W    W  A    A  R    R  N    N  II  N    N   GGGG   !!!           |
|                                                                             |
|      You have enabled k-point parallelism (KPAR>1).                         |
|      This developmental code was originally  written by Paul Kent at ORNL,  |
|      and carefully double checked in Vienna.                                |
|      GW as well as linear response parallelism added by Martijn Marsman     |
|      and Georg Kresse.                                                      |
|      Carefully verify results versus KPAR=1.                                |
|      Report problems to Paul Kent and Vienna.                               |
|                                                                             |
 ----------------------------------------------------------------------------- 

 POTCAR:    PAW_PBE O 08Apr2002                   
   VRHFIN =O: s2p4                                                              
   LEXCH  = PE                                                                  
   EATOM  =   432.3788 eV,   31.7789 Ry                                         
                                                                                
   TITEL  = PAW_PBE O 08Apr2002                                                 
   LULTRA =        F    use ultrasoft PP ?                                      
   IUNSCR =        1    unscreen: 0-lin 1-nonlin 2-no                           
   RPACOR =    1.200    partial core radius                                     
   POMASS =   16.000; ZVAL   =    6.000    mass and valenz                      
   RCORE  =    1.520    outmost cutoff radius                                   
   RWIGS  =    1.550; RWIGS  =    0.820    wigner-seitz radius (au A)           
   ENMAX  =  400.000; ENMIN  =  300.000 eV                                      
   ICORE  =        2    local potential                                         
   LCOR   =        T    correct aug charges                                     
   LPAW   =        T    paw PP                                                  
   EAUG   =  605.392                                                            
   DEXC   =    0.000                                                            
   RMAX   =    1.553    core radius for proj-oper                               
   RAUG   =    1.300    factor for augmentation sphere                          
   RDEP   =    1.550    radius for radial grids                                 
   RDEPT  =    1.329    core radius for aug-charge                              
                                                                                
   Atomic configuration                                                         
    4 entries                                                                   
     n  l   j            E        occ.                                          
     1  0  0.50      -514.6923   2.0000                                         
     2  0  0.50       -23.9615   2.0000                                         
     2  1  0.50        -9.0305   4.0000                                         
     3  2  1.50        -9.5241   0.0000                                         
   Description                                                                  
     l       E           TYP  RCUT    TYP  RCUT                                 
     0    -23.9615318     23  1.200                                             
     0     -9.5240782     23  1.200                                             
     1     -9.0304911     23  1.520                                             
     1      8.1634956     23  1.520                                             
     2     -9.5240782      7  1.500                                             
  local pseudopotential read in
  partial core-charges read in
  partial kinetic energy density read in
  kinetic energy density of atom read in
  atomic valenz-charges read in
  non local Contribution for L=           0  read in
    real space projection operators read in
  non local Contribution for L=           0  read in
    real space projection operators read in
  non local Contribution for L=           1  read in
    real space projection operators read in
  non local Contribution for L=           1  read in
    real space projection operators read in
    PAW grid and wavefunctions read in
 
   number of l-projection  operators is LMAX  =           4
   number of lm-projection operators is LMMAX =           8
 
 POTCAR:    PAW_PBE Ir 06Sep2000                  
   VRHFIN =Ir: s1d8                                                             
   LEXCH  = PE                                                                  
   EATOM  =   560.1833 eV,   41.1723 Ry                                         
                                                                                
   TITEL  = PAW_PBE Ir 06Sep2000                                                
   LULTRA =        F    use ultrasoft PP ?                                      
   IUNSCR =        1    unscreen: 0-lin 1-nonlin 2-no                           
   RPACOR =    2.250    partial core radius                                     
   POMASS =  192.220; ZVAL   =    9.000    mass and valenz                      
   RCORE  =    2.600    outmost cutoff radius                                   
   RWIGS  =    2.690; RWIGS  =    1.423    wigner-seitz radius (au A)           
   ENMAX  =  210.864; ENMIN  =  158.148 eV                                      
   RCLOC  =    1.857    cutoff for local pot                                    
   LCOR   =        T    correct aug charges                                     
   LPAW   =        T    paw PP                                                  
   EAUG   =  318.962                                                            
   DEXC   =    0.000                                                            
   RMAX   =    2.667    core radius for proj-oper                               
   RAUG   =    1.300    factor for augmentation sphere                          
   RDEP   =    2.748    radius for radial grids                                 
   RDEPT  =    2.300    core radius for aug-charge                              
                                                                                
   Atomic configuration                                                         
   16 entries                                                                   
     n  l   j            E        occ.                                          
     1  0  0.50    -76100.0449   2.0000                                         
     2  0  0.50    -13308.1683   2.0000                                         
     2  1  1.50    -11558.0021   6.0000                                         
     3  0  0.50     -3110.7274   2.0000                                         
     3  1  1.50     -2599.2109   6.0000                                         
     3  2  2.50     -2037.1515  10.0000                                         
     4  0  0.50      -661.6001   2.0000                                         
     4  1  1.50      -493.8981   6.0000                                         
     4  2  2.50      -288.1909  10.0000                                         
     4  3  3.50       -59.5718  14.0000                                         
     5  0  0.50       -95.3879   2.0000                                         
     5  1  1.50       -52.2747   6.0000                                         
     5  2  2.50        -5.4180   8.0000                                         
     6  0  0.50        -5.5479   1.0000                                         
     6  1  1.50        -6.8029   0.0000                                         
     5  3  2.50        -1.3606   0.0000                                         
   Description                                                                  
     l       E           TYP  RCUT    TYP  RCUT                                 
     2     -5.4179967     23  2.600                                             
     2     -6.7785793     23  2.600                                             
     0     -5.5478636     23  2.600                                             
     0      2.2542272     23  2.600                                             
     1     -2.7211652     23  2.600                                             
     1     20.4087390     23  2.600                                             
  local pseudopotential read in
  partial core-charges read in
  partial kinetic energy density read in
  atomic valenz-charges read in
  non local Contribution for L=           2  read in
    real space projection operators read in
  non local Contribution for L=           2  read in
    real space projection operators read in
  non local Contribution for L=           0  read in
    real space projection operators read in
  non local Contribution for L=           0  read in
    real space projection operators read in
  non local Contribution for L=           1  read in
    real space projection operators read in
  non local Contribution for L=           1  read in
    real space projection operators read in
    PAW grid and wavefunctions read in
 
   number of l-projection  operators is LMAX  =           6
   number of lm-projection operators is LMMAX =          18
 
 Optimization of the real space projectors (new method)

 maximal supplied QI-value         = 24.76
 optimisation between [QCUT,QGAM] = [ 12.38, 31.19] = [ 42.90,272.45] Ry 
 Optimized for a Real-space Cutoff    0.88 Angstroem

   l    n(q)    QCUT    max X(q) W(low)/X(q) W(high)/X(q)  e(spline) 
   0      8    12.378    20.381    0.23E-03    0.15E-03    0.14E-06
   0      8    12.378    15.268    0.25E-03    0.16E-03    0.15E-06
   1      8    12.378     5.964    0.24E-03    0.11E-03    0.16E-06
   1      8    12.378     5.382    0.21E-03    0.84E-04    0.13E-06
 Optimization of the real space projectors (new method)

 maximal supplied QI-value         = 14.36
 optimisation between [QCUT,QGAM] = [ 12.49, 31.31] = [ 43.72,274.50] Ry 
 Optimized for a Real-space Cutoff    1.40 Angstroem

   l    n(q)    QCUT    max X(q) W(low)/X(q) W(high)/X(q)  e(spline) 
   2     12    12.495   134.116    0.29E-03    0.64E-03    0.30E-04
   2     12    12.495   130.192    0.29E-03    0.64E-03    0.30E-04
   0     13    12.495    60.310    0.11E-03    0.19E-03    0.31E-04
   0     13    12.495    39.218    0.10E-03    0.18E-03    0.29E-04
   1     13    12.495    18.439    0.29E-03    0.21E-04    0.43E-04
   1     13    12.495    12.760    0.22E-03    0.16E-04    0.33E-04
  PAW_PBE O 08Apr2002                   :
 energy of atom  1       EATOM= -432.3788
 kinetic energy error for atom=    0.0168 (will be added to EATOM!!)
  PAW_PBE Ir 06Sep2000                  :
 energy of atom  2       EATOM= -560.1833
 kinetic energy error for atom=    0.0008 (will be added to EATOM!!)
 
 
 POSCAR:  O Ir                                   
  positions in cartesian coordinates
  No initial velocities read in
 exchange correlation table for  LEXCH =        8
   RHO(1)=    0.500       N(1)  =     2000
   RHO(2)=  100.500       N(2)  =     4000

 VTST: version 3.2, (02/03/18)

 CHAIN: initializing optimizer
 
 OPT: Using VASP Conjugate-Gradient optimizer
 CHAIN: Read ICHAIN            0
 
 POSCAR:  O Ir                                   
  positions in cartesian coordinates
  No initial velocities read in
 


--------------------------------------------------------------------------------------------------------


 ion  position               nearest neighbor table
   1  0.500  0.316  0.465-  33 1.97  40 1.97
   2  0.500  0.684  0.465-  34 1.97  39 1.97
   3  0.684  0.000  0.715-  35 1.97  37 1.97
   4  0.316  0.000  0.715-  38 1.97  44 1.97
   5  0.000  0.316  0.285-  43 1.97  46 1.97
   6  0.000  0.684  0.285-  36 1.97  45 1.97
   7  0.316  0.500  0.535-  33 1.97  39 1.97
   8  0.684  0.500  0.535-  34 1.97  40 1.97
   9  0.703  0.750  0.625-  34 1.96  35 1.96
  10  0.797  0.750  0.125-  36 1.96  41 1.96
  11  0.750  0.703  0.375-  34 1.96  36 1.96
  12  0.750  0.797  0.875-  35 1.96  41 1.96
  13  0.797  0.250  0.125-  46 1.96  47 1.96
  14  0.703  0.250  0.625-  37 1.96  40 1.96
  15  0.250  0.797  0.875-  38 1.96  48 1.96
  16  0.250  0.703  0.375-  39 1.96  45 1.96
  17  0.000  0.816  0.965-  41 1.97  48 1.97
  18  0.000  0.184  0.965-  42 1.97  47 1.97
  19  0.184  0.500  0.215-  43 1.97  45 1.97
  20  0.816  0.500  0.215-  36 1.97  46 1.97
  21  0.500  0.816  0.785-  35 1.97  38 1.97
  22  0.500  0.184  0.785-  37 1.97  44 1.97
  23  0.816  0.000  0.035-  41 1.97  47 1.97
  24  0.184  0.000  0.035-  42 1.97  48 1.97
  25  0.203  0.250  0.125-  42 1.96  43 1.96
  26  0.297  0.250  0.625-  33 1.96  44 1.96
  27  0.250  0.203  0.875-  42 1.96  44 1.96
  28  0.250  0.297  0.375-  33 1.96  43 1.96
  29  0.297  0.750  0.625-  38 1.96  39 1.96
  30  0.203  0.750  0.125-  45 1.96  48 1.96
  31  0.750  0.297  0.375-  40 1.96  46 1.96
  32  0.750  0.203  0.875-  37 1.96  47 1.96
  33  0.341  0.341  0.500-  26 1.96  28 1.96   1 1.97   7 1.97
  34  0.659  0.659  0.500-   9 1.96  11 1.96   2 1.97   8 1.97
  35  0.659  0.841  0.750-   9 1.96  12 1.96  21 1.97   3 1.97
  36  0.841  0.659  0.250-  10 1.96  11 1.96  20 1.97   6 1.97
  37  0.659  0.159  0.750-  14 1.96  32 1.96  22 1.97   3 1.97
  38  0.341  0.841  0.750-  15 1.96  29 1.96  21 1.97   4 1.97
  39  0.341  0.659  0.500-  16 1.96  29 1.96   7 1.97   2 1.97
  40  0.659  0.341  0.500-  14 1.96  31 1.96   1 1.97   8 1.97
  41  0.841  0.841  0.000-  10 1.96  12 1.96  17 1.97  23 1.97
  42  0.159  0.159  0.000-  25 1.96  27 1.96  18 1.97  24 1.97
  43  0.159  0.341  0.250-  25 1.96  28 1.96   5 1.97  19 1.97
  44  0.341  0.159  0.750-  26 1.96  27 1.96   4 1.97  22 1.97
  45  0.159  0.659  0.250-  16 1.96  30 1.96  19 1.97   6 1.97
  46  0.841  0.341  0.250-  13 1.96  31 1.96  20 1.97   5 1.97
  47  0.841  0.159  0.000-  13 1.96  32 1.96  23 1.97  18 1.97
  48  0.159  0.841  0.000-  15 1.96  30 1.96  24 1.97  17 1.97
 
  LATTYP: Found a simple tetragonal cell.
 ALAT       =    11.9704000000
 C/A-ratio  =     1.0309597006
  
  Lattice vectors:
  
 A1 = (  11.9704000000,   0.0000000000,   0.0000000000)
 A2 = (   0.0000000000,  11.9704000000,   0.0000000000)
 A3 = (   0.0000000000,   0.0000000000,  12.3410000000)


Analysis of symmetry for initial positions (statically):
=====================================================================
 Subroutine PRICEL returns:
 Original cell was already a primitive cell.
 

 Routine SETGRP: Setting up the symmetry group for a 
 simple tetragonal supercell.


 Subroutine GETGRP returns: Found  2 space group operations
 (whereof  2 operations were pure point group operations)
 out of a pool of 16 trial point group operations.


The static configuration has the point symmetry C_2 .


Analysis of symmetry for dynamics (positions and initial velocities):
=====================================================================
 Subroutine PRICEL returns:
 Original cell was already a primitive cell.
 

 Routine SETGRP: Setting up the symmetry group for a 
 simple tetragonal supercell.


 Subroutine GETGRP returns: Found  2 space group operations
 (whereof  2 operations were pure point group operations)
 out of a pool of 16 trial point group operations.


The dynamic configuration has the point symmetry C_2 .


Analysis of structural, dynamic, and magnetic symmetry:
=====================================================================
 Subroutine PRICEL returns:
 Original cell was already a primitive cell.
 

 Routine SETGRP: Setting up the symmetry group for a 
 simple tetragonal supercell.


 Subroutine GETGRP returns: Found  2 space group operations
 (whereof  2 operations were pure point group operations)
 out of a pool of 16 trial point group operations.


The magnetic configuration has the point symmetry C_2 .


 Subroutine INISYM returns: Found  2 space group operations
 (whereof  2 operations are pure point group operations),
 and found     1 'primitive' translations

 
 
 KPOINTS: KPOINTS created by Atomic Simulation Env

Automatic generation of k-mesh.
Space group operators:
 irot       det(A)        alpha          n_x          n_y          n_z        tau_x        tau_y        tau_z
    1     1.000000     0.000000     1.000000     0.000000     0.000000     0.000000     0.000000     0.000000
    2     1.000000   180.000000     0.707107     0.707107     0.000000     0.000000     0.000000     0.000000
 
 Subroutine IBZKPT returns following result:
 ===========================================
 
 Found      1 irreducible k-points:
 
 Following reciprocal coordinates:
            Coordinates               Weight
  0.000000  0.000000  0.000000      1.000000
 
 Following cartesian coordinates:
            Coordinates               Weight
  0.000000  0.000000  0.000000      1.000000
 


--------------------------------------------------------------------------------------------------------




 Dimension of arrays:
   k-points           NKPTS =      1   k-points in BZ     NKDIM =      1   number of bands    NBANDS=    228
   number of dos      NEDOS =    301   number of ions     NIONS =     48
   non local maximal  LDIM  =      6   non local SUM 2l+1 LMDIM =     18
   total plane-waves  NPLWV = 921600
   max r-space proj   IRMAX =   6103   max aug-charges    IRDMAX=  11923
   dimension x,y,z NGX =    96 NGY =   96 NGZ =  100
   dimension x,y,z NGXF=   128 NGYF=  128 NGZF=  140
   support grid    NGXF=   128 NGYF=  128 NGZF=  140
   ions per type =              32  16
   NGX,Y,Z   is equivalent  to a cutoff of  13.33, 13.33, 13.47 a.u.
   NGXF,Y,Z  is equivalent  to a cutoff of  17.78, 17.78, 18.86 a.u.

 SYSTEM =  unknown system                          
 POSCAR =   O Ir                                   

 Startparameter for this run:
   NWRITE =      2    write-flag & timer
   PREC   = high      normal or accurate (medium, high low for compatibility)
   ISTART =      0    job   : 0-new  1-cont  2-samecut
   ICHARG =      2    charge: 1-file 2-atom 10-const
   ISPIN  =      2    spin polarized calculation?
   LNONCOLLINEAR =      F non collinear calculations
   LSORBIT =      F    spin-orbit coupling
   INIWAV =      1    electr: 0-lowe 1-rand  2-diag
   LASPH  =      T    aspherical Exc in radial PAW
   METAGGA=      F    non-selfconsistent MetaGGA calc.

 Electronic Relaxation 1
   ENCUT  =  600.0 eV  44.10 Ry    6.64 a.u.  23.91 23.91 24.65*2*pi/ulx,y,z
   ENINI  =  600.0     initial cutoff
   ENAUG  =  605.4 eV  augmentation charge cutoff
   NELM   =    220;   NELMIN=  2; NELMDL= -5     # of ELM steps 
   EDIFF  = 0.1E-05   stopping-criterion for ELM
   LREAL  =      T    real-space projection
   NLSPLINE    = F    spline interpolate recip. space projectors
   LCOMPAT=      F    compatible to vasp.4.4
   GGA_COMPAT  = T    GGA compatible to vasp.4.4-vasp.4.6
   LMAXPAW     = -100 max onsite density
   LMAXMIX     =    6 max onsite mixed and CHGCAR
   VOSKOWN=      0    Vosko Wilk Nusair interpolation
   ROPT   =   -0.00040  -0.00040
 Ionic relaxation
   EDIFFG = 0.5E-02   stopping-criterion for IOM
   NSW    =    150    number of steps for IOM
   NBLOCK =      1;   KBLOCK =    150    inner block; outer block 
   IBRION =      2    ionic relax: 0-MD 1-quasi-New 2-CG
   NFREE  =      1    steps in history (QN), initial steepest desc. (CG)
   ISIF   =      7    stress and relaxation
   IWAVPR =     11    prediction:  0-non 1-charg 2-wave 3-comb
   ISYM   =      2    0-nonsym 1-usesym 2-fastsym
   LCORR  =      T    Harris-Foulkes like correction to forces

   POTIM  = 0.0300    time-step for ionic-motion
   TEIN   =    0.0    initial temperature
   TEBEG  =    0.0;   TEEND  =   0.0 temperature during run
   SMASS  =  -3.00    Nose mass-parameter (am)
   estimated Nose-frequenzy (Omega)   =  0.10E-29 period in steps =****** mass=  -0.327E-26a.u.
   SCALEE = 1.0000    scale energy and forces
   NPACO  =    256;   APACO  = 16.0  distance and # of slots for P.C.
   PSTRESS=    0.0 pullay stress

  Mass of Ions in am
   POMASS =  16.00192.22
  Ionic Valenz
   ZVAL   =   6.00  9.00
  Atomic Wigner-Seitz radii
   RWIGS  =  -1.00 -1.00
  virtual crystal weights 
   VCA    =   1.00  1.00
   NELECT =     336.0000    total number of electrons
   NUPDOWN=      -1.0000    fix difference up-down

 DOS related values:
   EMIN   =  10.00;   EMAX   =-10.00  energy-range for DOS
   EFERMI =   0.00
   ISMEAR =     0;   SIGMA  =   0.05  broadening in eV -4-tet -1-fermi 0-gaus

 Electronic relaxation 2 (details)
   IALGO  =     68    algorithm
   LDIAG  =      T    sub-space diagonalisation (order eigenvalues)
   LSUBROT=      F    optimize rotation matrix (better conditioning)
   TURBO    =      0    0=normal 1=particle mesh
   IRESTART =      0    0=no restart 2=restart with 2 vectors
   NREBOOT  =      0    no. of reboots
   NMIN     =      0    reboot dimension
   EREF     =   0.00    reference energy to select bands
   IMIX   =      4    mixing-type and parameters
     AMIX     =   0.20;   BMIX     =  0.00
     AMIX_MAG =   0.10;   BMIX_MAG =  0.00
     AMIN     =   0.10
     WC   =   100.;   INIMIX=   0;  MIXPRE=   1;  MAXMIX= -45

 Intra band minimization:
   WEIMIN = 0.0010     energy-eigenvalue tresh-hold
   EBREAK =  0.11E-08  absolut break condition
   DEPER  =   0.30     relativ break condition  

   TIME   =   0.40     timestep for ELM

  volume/ion in A,a.u.               =      36.84       248.61
  Fermi-wavevector in a.u.,A,eV,Ry     =   0.941164  1.778542 12.051903  0.885790
  Thomas-Fermi vector in A             =   2.068648
 
 Write flags
   LWAVE        =      T    write WAVECAR
   LDOWNSAMPLE  =      F    k-point downsampling of WAVECAR
   LCHARG       =      T    write CHGCAR
   LVTOT        =      F    write LOCPOT, total local potential
   LVHAR        =      F    write LOCPOT, Hartree potential only
   LELF         =      F    write electronic localiz. function (ELF)
   LORBIT       =     11    0 simple, 1 ext, 2 COOP (PROOUT), +10 PAW based schemes


 Dipole corrections
   LMONO  =      F    monopole corrections only (constant potential shift)
   LDIPOL =      F    correct potential (dipole corrections)
   IDIPOL =      0    1-x, 2-y, 3-z, 4-all directions 
   EPSILON=  1.0000000 bulk dielectric constant

 Exchange correlation treatment:
   GGA     =    PE    GGA type
   LEXCH   =     8    internal setting for exchange type
   VOSKOWN=      0    Vosko Wilk Nusair interpolation
   LHFCALC =     F    Hartree Fock is set to
   LHFONE  =     F    Hartree Fock one center treatment
   AEXX    =    0.0000 exact exchange contribution

 Linear response parameters
   LEPSILON=     F    determine dielectric tensor
   LRPA    =     F    only Hartree local field effects (RPA)
   LNABLA  =     F    use nabla operator in PAW spheres
   LVEL    =     F    velocity operator in full k-point grid
   LINTERFAST=   F  fast interpolation
   KINTER  =     0    interpolate to denser k-point grid
   CSHIFT  =0.1000    complex shift for real part using Kramers Kronig
   OMEGAMAX=  -1.0    maximum frequency
   DEG_THRESHOLD= 0.2000000E-02 threshold for treating states as degnerate
   RTIME   =   -0.100 relaxation time in fs
  (WPLASMAI=    0.000 imaginary part of plasma frequency in eV, 0.658/RTIME)
   DFIELD  = 0.0000000 0.0000000 0.0000000 field for delta impulse in time
 
 Orbital magnetization related:
   ORBITALMAG=     F  switch on orbital magnetization
   LCHIMAG   =     F  perturbation theory with respect to B field
   DQ        =  0.001000  dq finite difference perturbation B field
   LLRAUG    =     F  two centre corrections for induced B field



--------------------------------------------------------------------------------------------------------


 conjugate gradient relaxation of ions
 charge density and potential will be updated during run
 spin polarized calculation
 RMM-DIIS sequential band-by-band and
  variant of blocked Davidson during initial phase
 perform sub-space diagonalisation
    before iterative eigenvector-optimisation
 modified Broyden-mixing scheme, WC =      100.0
 initial mixing is a simple linear mixing with ALPHA =  0.2000
 Hartree-type preconditioning will be used
 using additional bands           60
 real space projection scheme for non local part
 use partial core corrections
 calculate Harris-corrections to forces 
   (improved forces if not selfconsistent)
 use gradient corrections 
 use of overlap-Matrix (Vanderbilt PP)
 Gauss-broadening in eV      SIGMA  =   0.05


--------------------------------------------------------------------------------------------------------


  energy-cutoff  :      600.00
  volume of cell :     1768.35
      direct lattice vectors                 reciprocal lattice vectors
    11.970400000  0.000000000  0.000000000     0.083539397  0.000000000  0.000000000
     0.000000000 11.970400000  0.000000000     0.000000000  0.083539397  0.000000000
     0.000000000  0.000000000 12.341000000     0.000000000  0.000000000  0.081030711

  length of vectors
    11.970400000 11.970400000 12.341000000     0.083539397  0.083539397  0.081030711


 
 k-points in units of 2pi/SCALE and weight: KPOINTS created by Atomic Simulation Env
   0.00000000  0.00000000  0.00000000       1.000
 
 k-points in reciprocal lattice and weights: KPOINTS created by Atomic Simulation Env
   0.00000000  0.00000000  0.00000000       1.000
 
 position of ions in fractional coordinates (direct lattice) 
   0.50000000  0.31582000  0.46515000
   0.50000000  0.68419000  0.46515000
   0.68419000  0.00000000  0.71515000
   0.31582000  0.00000000  0.71515000
   0.00000000  0.31582000  0.28485000
   0.00000000  0.68419000  0.28485000
   0.31582000  0.50000000  0.53485000
   0.68419000  0.50000000  0.53485000
   0.70279000  0.75000000  0.62500000
   0.79721000  0.75000000  0.12500000
   0.75000000  0.70279000  0.37500000
   0.75000000  0.79721000  0.87500000
   0.79721000  0.25000000  0.12500000
   0.70279000  0.25000000  0.62500000
   0.25000000  0.79721000  0.87500000
   0.25000000  0.70279000  0.37500000
   0.00000000  0.81582000  0.96515000
   0.00000000  0.18418000  0.96515000
   0.18418000  0.50000000  0.21515000
   0.81582000  0.50000000  0.21515000
   0.50000000  0.81582000  0.78485000
   0.50000000  0.18418000  0.78485000
   0.81582000  0.00000000  0.03485000
   0.18418000  0.00000000  0.03485000
   0.20279000  0.25000000  0.12500000
   0.29721000  0.25000000  0.62500000
   0.25000000  0.20279000  0.87500000
   0.25000000  0.29721000  0.37500000
   0.29721000  0.75000000  0.62500000
   0.20279000  0.75000000  0.12500000
   0.75000000  0.29721000  0.37500000
   0.75000000  0.20279000  0.87500000
   0.34120000  0.34120000  0.50000000
   0.65880000  0.65880000  0.50000000
   0.65880000  0.84120000  0.75000000
   0.84120000  0.65880000  0.25000000
   0.65880000  0.15880000  0.75000000
   0.34120000  0.84120000  0.75000000
   0.34120000  0.65880000  0.50000000
   0.65880000  0.34120000  0.50000000
   0.84120000  0.84120000  0.00000000
   0.15880000  0.15880000  0.00000000
   0.15880000  0.34120000  0.25000000
   0.34120000  0.15880000  0.75000000
   0.15880000  0.65880000  0.25000000
   0.84120000  0.34120000  0.25000000
   0.84120000  0.15880000  0.00000000
   0.15880000  0.84120000  0.00000000
 
 position of ions in cartesian coordinates  (Angst):
   5.98520000  3.78049173  5.74041615
   5.98520000  8.19002798  5.74041615
   8.19002798  0.00000000  8.82566615
   3.78049173  0.00000000  8.82566615
   0.00000000  3.78049173  3.51533385
   0.00000000  8.19002798  3.51533385
   3.78049173  5.98520000  6.60058385
   8.19002798  5.98520000  6.60058385
   8.41267742  8.97780000  7.71312500
   9.54292258  8.97780000  1.54262500
   8.97780000  8.41267742  4.62787500
   8.97780000  9.54292258 10.79837500
   9.54292258  2.99260000  1.54262500
   8.41267742  2.99260000  7.71312500
   2.99260000  9.54292258 10.79837500
   2.99260000  8.41267742  4.62787500
   0.00000000  9.76569173 11.91091615
   0.00000000  2.20470827 11.91091615
   2.20470827  5.98520000  2.65516615
   9.76569173  5.98520000  2.65516615
   5.98520000  9.76569173  9.68583385
   5.98520000  2.20470827  9.68583385
   9.76569173  0.00000000  0.43008385
   2.20470827  0.00000000  0.43008385
   2.42747742  2.99260000  1.54262500
   3.55772258  2.99260000  7.71312500
   2.99260000  2.42747742 10.79837500
   2.99260000  3.55772258  4.62787500
   3.55772258  8.97780000  7.71312500
   2.42747742  8.97780000  1.54262500
   8.97780000  3.55772258  4.62787500
   8.97780000  2.42747742 10.79837500
   4.08430048  4.08430048  6.17050000
   7.88609952  7.88609952  6.17050000
   7.88609952 10.06950048  9.25575000
  10.06950048  7.88609952  3.08525000
   7.88609952  1.90089952  9.25575000
   4.08430048 10.06950048  9.25575000
   4.08430048  7.88609952  6.17050000
   7.88609952  4.08430048  6.17050000
  10.06950048 10.06950048  0.00000000
   1.90089952  1.90089952  0.00000000
   1.90089952  4.08430048  3.08525000
   4.08430048  1.90089952  9.25575000
   1.90089952  7.88609952  3.08525000
  10.06950048  4.08430048  3.08525000
  10.06950048  1.90089952  0.00000000
   1.90089952 10.06950048  0.00000000
 


--------------------------------------------------------------------------------------------------------


 k-point  1 :   0.0000 0.0000 0.0000  plane waves:   58997

 maximum and minimum number of plane-waves per node :      5370     5357

 maximum number of plane-waves:     58997
 maximum index in each direction: 
   IXMAX=   23   IYMAX=   23   IZMAX=   24
   IXMIN=  -23   IYMIN=  -23   IZMIN=  -24


 real space projection operators:
  total allocation   :      16090.00 KBytes
  max/ min on nodes  :       1496.69       1413.88


 parallel 3D FFT for wavefunctions:
    minimum data exchange during FFTs selected (reduces bandwidth)
 parallel 3D FFT for charge:
    minimum data exchange during FFTs selected (reduces bandwidth)


 total amount of memory used by VASP MPI-rank0    57293. kBytes
=======================================================================

   base      :      30000. kBytes
   nonlr-proj:       6774. kBytes
   fftplans  :       3937. kBytes
   grid      :       9839. kBytes
   one-center:        155. kBytes
   wavefun   :       6588. kBytes
 
     INWAV:  cpu time    0.0002: real time    0.0002
 Broyden mixing: mesh for mixing (old mesh)
   NGX = 47   NGY = 47   NGZ = 49
  (NGX  =128   NGY  =128   NGZ  =140)
  gives a total of 108241 points

 initial charge density was supplied:
 charge density of overlapping atoms calculated
 number of electron     336.0000000 magnetization      48.0000000
 keeping initial charge density in first step


--------------------------------------------------------------------------------------------------------


 Maximum index for non-local projection operator          587
 Maximum index for augmentation-charges          200 (set IRDMAX)


--------------------------------------------------------------------------------------------------------


 First call to EWALD:  gamma=   0.147
 Maximum number of real-space cells 3x 3x 3
 Maximum number of reciprocal cells 3x 3x 3

    FEWALD:  cpu time    0.0157: real time    0.0164


--------------------------------------- Iteration      1(   1)  ---------------------------------------


    POTLOK:  cpu time    0.1825: real time    0.3044
    SETDIJ:  cpu time    2.6168: real time    2.6230
     EDDAV:  cpu time    3.9732: real time    4.0678
       DOS:  cpu time    0.0072: real time    0.0106
    --------------------------------------------
      LOOP:  cpu time    6.7800: real time    7.0062

 eigenvalue-minimisations  :   912
 total energy-change (2. order) : 0.3464929E+04  (-0.1482502E+05)
 number of electron     336.0000000 magnetization      48.0000000
 augmentation part      336.0000000 magnetization      48.0000000

 Free energy of the ion-electron system (eV)
  ---------------------------------------------------
  alpha Z        PSCENC =       525.97314569
  Ewald energy   TEWEN  =     -3606.35770116
  -Hartree energ DENC   =    -18032.31101353
  -exchange      EXHF   =         0.00000000
  -V(xc)+E(xc)   XCENC  =       589.78830387
  PAW double counting   =     19905.99098173   -19318.37474755
  entropy T*S    EENTRO =        -0.02873565
  eigenvalues    EBANDS =       601.74594209
  atomic energy  EATOM  =     22798.50317220
  Solvation  Ediel_sol  =         0.00000000
  ---------------------------------------------------
  free energy    TOTEN  =      3464.92934770 eV

  energy without entropy =     3464.95808336  energy(sigma->0) =     3464.94371553


--------------------------------------------------------------------------------------------------------




--------------------------------------- Iteration      1(   2)  ---------------------------------------


     EDDAV:  cpu time    4.0743: real time    4.1365
       DOS:  cpu time    0.0047: real time    0.0047
    --------------------------------------------
      LOOP:  cpu time    4.0787: real time    4.1409

 eigenvalue-minimisations  :   948
 total energy-change (2. order) :-0.3106835E+04  (-0.2841952E+04)
 number of electron     336.0000000 magnetization      48.0000000
 augmentation part      336.0000000 magnetization      48.0000000

 Free energy of the ion-electron system (eV)
  ---------------------------------------------------
  alpha Z        PSCENC =       525.97314569
  Ewald energy   TEWEN  =     -3606.35770116
  -Hartree energ DENC   =    -18032.31101353
  -exchange      EXHF   =         0.00000000
  -V(xc)+E(xc)   XCENC  =       589.78830387
  PAW double counting   =     19905.99098173   -19318.37474755
  entropy T*S    EENTRO =        -0.02687336
  eigenvalues    EBANDS =     -2505.09115903
  atomic energy  EATOM  =     22798.50317220
  Solvation  Ediel_sol  =         0.00000000
  ---------------------------------------------------
  free energy    TOTEN  =       358.09410887 eV

  energy without entropy =      358.12098223  energy(sigma->0) =      358.10754555


--------------------------------------------------------------------------------------------------------




--------------------------------------- Iteration      1(   3)  ---------------------------------------


     EDDAV:  cpu time    5.0607: real time    5.1098
       DOS:  cpu time    0.0040: real time    0.0040
    --------------------------------------------
      LOOP:  cpu time    5.0647: real time    5.1139

 eigenvalue-minimisations  :  1224
 total energy-change (2. order) :-0.6824991E+03  (-0.6551676E+03)
 number of electron     336.0000000 magnetization      48.0000000
 augmentation part      336.0000000 magnetization      48.0000000

 Free energy of the ion-electron system (eV)
  ---------------------------------------------------
  alpha Z        PSCENC =       525.97314569
  Ewald energy   TEWEN  =     -3606.35770116
  -Hartree energ DENC   =    -18032.31101353
  -exchange      EXHF   =         0.00000000
  -V(xc)+E(xc)   XCENC  =       589.78830387
  PAW double counting   =     19905.99098173   -19318.37474755
  entropy T*S    EENTRO =        -0.06593195
  eigenvalues    EBANDS =     -3187.55121061
  atomic energy  EATOM  =     22798.50317220
  Solvation  Ediel_sol  =         0.00000000
  ---------------------------------------------------
  free energy    TOTEN  =      -324.40500129 eV

  energy without entropy =     -324.33906935  energy(sigma->0) =     -324.37203532


--------------------------------------------------------------------------------------------------------




--------------------------------------- Iteration      1(   4)  ---------------------------------------


     EDDAV:  cpu time    4.7646: real time    4.8113
       DOS:  cpu time    0.0034: real time    0.0034
    --------------------------------------------
      LOOP:  cpu time    4.7679: real time    4.8146

 eigenvalue-minimisations  :  1152
 total energy-change (2. order) :-0.3601770E+02  (-0.3395880E+02)
 number of electron     336.0000000 magnetization      48.0000000
 augmentation part      336.0000000 magnetization      48.0000000

 Free energy of the ion-electron system (eV)
  ---------------------------------------------------
  alpha Z        PSCENC =       525.97314569
  Ewald energy   TEWEN  =     -3606.35770116
  -Hartree energ DENC   =    -18032.31101353
  -exchange      EXHF   =         0.00000000
  -V(xc)+E(xc)   XCENC  =       589.78830387
  PAW double counting   =     19905.99098173   -19318.37474755
  entropy T*S    EENTRO =        -0.09284960
  eigenvalues    EBANDS =     -3223.54198863
  atomic energy  EATOM  =     22798.50317220
  Solvation  Ediel_sol  =         0.00000000
  ---------------------------------------------------
  free energy    TOTEN  =      -360.42269697 eV

  energy without entropy =     -360.32984736  energy(sigma->0) =     -360.37627216


--------------------------------------------------------------------------------------------------------




--------------------------------------- Iteration      1(   5)  ---------------------------------------


     EDDAV:  cpu time    4.6976: real time    4.7451
       DOS:  cpu time    0.0038: real time    0.0038
    CHARGE:  cpu time    0.9892: real time    0.9984
    MIXING:  cpu time    0.0200: real time    0.0245
    --------------------------------------------
      LOOP:  cpu time    5.7106: real time    5.7718

 eigenvalue-minimisations  :  1128
 total energy-change (2. order) :-0.1106562E+01  (-0.1090217E+01)
 number of electron     335.9999234 magnetization      44.8630493
 augmentation part       59.2402315 magnetization      35.0924982

 Broyden mixing:
  rms(total) = 0.11892E+02    rms(broyden)= 0.11892E+02
  rms(prec ) = 0.12636E+02
  weight for this iteration     100.00

 Free energy of the ion-electron system (eV)
  ---------------------------------------------------
  alpha Z        PSCENC =       525.97314569
  Ewald energy   TEWEN  =     -3606.35770116
  -Hartree energ DENC   =    -18032.31101353
  -exchange      EXHF   =         0.00000000
  -V(xc)+E(xc)   XCENC  =       589.78830387
  PAW double counting   =     19905.99098173   -19318.37474755
  entropy T*S    EENTRO =        -0.09175201
  eigenvalues    EBANDS =     -3224.64964807
  atomic energy  EATOM  =     22798.50317220
  Solvation  Ediel_sol  =         0.00000000
  ---------------------------------------------------
  free energy    TOTEN  =      -361.52925882 eV

  energy without entropy =     -361.43750681  energy(sigma->0) =     -361.48338281


--------------------------------------------------------------------------------------------------------




--------------------------------------- Iteration      1(   6)  ---------------------------------------


    POTLOK:  cpu time    0.1615: real time    0.2110
    SETDIJ:  cpu time    2.6563: real time    2.6563
    EDDIAG:  cpu time    0.7787: real time    0.7856
  RMM-DIIS:  cpu time    2.0597: real time    2.0655
    ORTHCH:  cpu time    0.0883: real time    0.0883
       DOS:  cpu time    0.0043: real time    0.0043
    CHARGE:  cpu time    0.9780: real time    0.9781
    MIXING:  cpu time    0.0209: real time    0.0283
    --------------------------------------------
      LOOP:  cpu time    6.7475: real time    6.8173

 eigenvalue-minimisations  :   918
 total energy-change (2. order) : 0.6780787E+02  (-0.1315443E+02)
 number of electron     335.9999455 magnetization      41.0281072
 augmentation part       60.8102917 magnetization      29.6977962

 Broyden mixing:
  rms(total) = 0.92996E+01    rms(broyden)= 0.92994E+01
  rms(prec ) = 0.93407E+01
  weight for this iteration     100.00

 eigenvalues of (default mixing * dielectric matrix)
  average eigenvalue GAMMA=   1.6151
  1.6151

 Free energy of the ion-electron system (eV)
  ---------------------------------------------------
  alpha Z        PSCENC =       525.97314569
  Ewald energy   TEWEN  =     -3606.35770116
  -Hartree energ DENC   =    -18150.28931196
  -exchange      EXHF   =         0.00000000
  -V(xc)+E(xc)   XCENC  =       607.30817521
  PAW double counting   =     21537.87387724   -20964.60909660
  entropy T*S    EENTRO =        -0.09214983
  eigenvalues    EBANDS =     -3042.03150460
  atomic energy  EATOM  =     22798.50317220
  Solvation  Ediel_sol  =         0.00000000
  ---------------------------------------------------
  free energy    TOTEN  =      -293.72139380 eV

  energy without entropy =     -293.62924397  energy(sigma->0) =     -293.67531889


--------------------------------------------------------------------------------------------------------




--------------------------------------- Iteration      1(   7)  ---------------------------------------


    POTLOK:  cpu time    0.1612: real time    0.2113
    SETDIJ:  cpu time    2.6576: real time    2.6577
    EDDIAG:  cpu time    0.7722: real time    0.7723
  RMM-DIIS:  cpu time    2.1645: real time    2.1646
    ORTHCH:  cpu time    0.0869: real time    0.0869
       DOS:  cpu time    0.0053: real time    0.0053
    CHARGE:  cpu time    0.9761: real time    0.9761
    MIXING:  cpu time    0.0224: real time    0.0243
    --------------------------------------------
      LOOP:  cpu time    6.8461: real time    6.8984

 eigenvalue-minimisations  :   967
 total energy-change (2. order) :-0.1964057E+01  (-0.2822108E+01)
 number of electron     335.9999487 magnetization      32.9924758
 augmentation part       62.2308557 magnetization      21.6143574

 Broyden mixing:
  rms(total) = 0.65066E+01    rms(broyden)= 0.65066E+01
  rms(prec ) = 0.65321E+01
  weight for this iteration     100.00

 eigenvalues of (default mixing * dielectric matrix)
  average eigenvalue GAMMA=   2.4723
  1.3487  3.5958

 Free energy of the ion-electron system (eV)
  ---------------------------------------------------
  alpha Z        PSCENC =       525.97314569
  Ewald energy   TEWEN  =     -3606.35770116
  -Hartree energ DENC   =    -18167.21638058
  -exchange      EXHF   =         0.00000000
  -V(xc)+E(xc)   XCENC  =       609.92639151
  PAW double counting   =     23609.17182158   -23045.21145090
  entropy T*S    EENTRO =        -0.08141057
  eigenvalues    EBANDS =     -3020.39303871
  atomic energy  EATOM  =     22798.50317220
  Solvation  Ediel_sol  =         0.00000000
  ---------------------------------------------------
  free energy    TOTEN  =      -295.68545093 eV

  energy without entropy =     -295.60404035  energy(sigma->0) =     -295.64474564


--------------------------------------------------------------------------------------------------------




--------------------------------------- Iteration      1(   8)  ---------------------------------------


    POTLOK:  cpu time    0.1612: real time    0.2109
    SETDIJ:  cpu time    2.6573: real time    2.6574
    EDDIAG:  cpu time    0.7718: real time    0.7718
  RMM-DIIS:  cpu time    2.0513: real time    2.0514
    ORTHCH:  cpu time    0.0870: real time    0.0870
       DOS:  cpu time    0.0043: real time    0.0043
    CHARGE:  cpu time    0.9761: real time    0.9762
    MIXING:  cpu time    0.0233: real time    0.0240
    --------------------------------------------
      LOOP:  cpu time    6.7323: real time    6.7830

 eigenvalue-minimisations  :   912
 total energy-change (2. order) :-0.5623784E+01  (-0.1724910E+01)
 number of electron     335.9999480 magnetization      30.1993816
 augmentation part       60.8774757 magnetization      22.2473192

 Broyden mixing:
  rms(total) = 0.25438E+01    rms(broyden)= 0.25437E+01
  rms(prec ) = 0.28348E+01
  weight for this iteration     100.00

 eigenvalues of (default mixing * dielectric matrix)
  average eigenvalue GAMMA=   2.0764
  4.3335  1.0928  0.8030

 Free energy of the ion-electron system (eV)
  ---------------------------------------------------
  alpha Z        PSCENC =       525.97314569
  Ewald energy   TEWEN  =     -3606.35770116
  -Hartree energ DENC   =    -18135.69097499
  -exchange      EXHF   =         0.00000000
  -V(xc)+E(xc)   XCENC  =       601.69562160
  PAW double counting   =     27570.66884971   -27018.74573321
  entropy T*S    EENTRO =        -0.06782738
  eigenvalues    EBANDS =     -3037.28778784
  atomic energy  EATOM  =     22798.50317220
  Solvation  Ediel_sol  =         0.00000000
  ---------------------------------------------------
  free energy    TOTEN  =      -301.30923537 eV

  energy without entropy =     -301.24140799  energy(sigma->0) =     -301.27532168


--------------------------------------------------------------------------------------------------------




--------------------------------------- Iteration      1(   9)  ---------------------------------------


    POTLOK:  cpu time    0.1612: real time    0.2123
    SETDIJ:  cpu time    2.6584: real time    2.6585
    EDDIAG:  cpu time    0.7709: real time    0.7709
  RMM-DIIS:  cpu time    2.0540: real time    2.0541
    ORTHCH:  cpu time    0.0860: real time    0.0860
       DOS:  cpu time    0.0041: real time    0.0041
    CHARGE:  cpu time    0.9771: real time    0.9771
    MIXING:  cpu time    0.0234: real time    0.0243
    --------------------------------------------
      LOOP:  cpu time    6.7352: real time    6.7874

 eigenvalue-minimisations  :   912
 total energy-change (2. order) : 0.2269533E+01  (-0.3883816E+00)
 number of electron     335.9999474 magnetization      29.4272948
 augmentation part       61.4311662 magnetization      21.0685351

 Broyden mixing:
  rms(total) = 0.25013E+01    rms(broyden)= 0.25013E+01
  rms(prec ) = 0.30562E+01
  weight for this iteration     100.00

 eigenvalues of (default mixing * dielectric matrix)
  average eigenvalue GAMMA=   1.6512
  4.4787  0.9657  0.9657  0.1946

 Free energy of the ion-electron system (eV)
  ---------------------------------------------------
  alpha Z        PSCENC =       525.97314569
  Ewald energy   TEWEN  =     -3606.35770116
  -Hartree energ DENC   =    -18160.72686879
  -exchange      EXHF   =         0.00000000
  -V(xc)+E(xc)   XCENC  =       604.91708685
  PAW double counting   =     28511.96238338   -27964.65625135
  entropy T*S    EENTRO =        -0.08241060
  eigenvalues    EBANDS =     -3008.57225868
  atomic energy  EATOM  =     22798.50317220
  Solvation  Ediel_sol  =         0.00000000
  ---------------------------------------------------
  free energy    TOTEN  =      -299.03970245 eV

  energy without entropy =     -298.95729185  energy(sigma->0) =     -298.99849715


--------------------------------------------------------------------------------------------------------




--------------------------------------- Iteration      1(  10)  ---------------------------------------


    POTLOK:  cpu time    0.1615: real time    0.2111
    SETDIJ:  cpu time    2.6593: real time    2.6594
    EDDIAG:  cpu time    0.7717: real time    0.7717
  RMM-DIIS:  cpu time    2.0804: real time    2.0805
    ORTHCH:  cpu time    0.0874: real time    0.0874
       DOS:  cpu time    0.0045: real time    0.0045
    CHARGE:  cpu time    0.9750: real time    0.9750
    MIXING:  cpu time    0.0204: real time    0.0204
    --------------------------------------------
      LOOP:  cpu time    6.7602: real time    6.8100

 eigenvalue-minimisations  :   925
 total energy-change (2. order) : 0.1521443E+01  (-0.9833566E-01)
 number of electron     335.9999475 magnetization      27.5348198
 augmentation part       61.5140298 magnetization      19.5046443

 Broyden mixing:
  rms(total) = 0.16015E+01    rms(broyden)= 0.16014E+01
  rms(prec ) = 0.17353E+01
  weight for this iteration     100.00

 eigenvalues of (default mixing * dielectric matrix)
  average eigenvalue GAMMA=   1.5321
  4.7577  1.0343  1.0343  0.6790  0.1554

 Free energy of the ion-electron system (eV)
  ---------------------------------------------------
  alpha Z        PSCENC =       525.97314569
  Ewald energy   TEWEN  =     -3606.35770116
  -Hartree energ DENC   =    -18165.85600783
  -exchange      EXHF   =         0.00000000
  -V(xc)+E(xc)   XCENC  =       605.51920663
  PAW double counting   =     28707.97867644   -28161.62492291
  entropy T*S    EENTRO =        -0.08404576
  eigenvalues    EBANDS =     -3001.56978279
  atomic energy  EATOM  =     22798.50317220
  Solvation  Ediel_sol  =         0.00000000
  ---------------------------------------------------
  free energy    TOTEN  =      -297.51825949 eV

  energy without entropy =     -297.43421372  energy(sigma->0) =     -297.47623661


--------------------------------------------------------------------------------------------------------




--------------------------------------- Iteration      1(  11)  ---------------------------------------


    POTLOK:  cpu time    0.1611: real time    0.2135
    SETDIJ:  cpu time    2.6585: real time    2.6586
    EDDIAG:  cpu time    0.7742: real time    0.7742
  RMM-DIIS:  cpu time    2.0735: real time    2.0736
    ORTHCH:  cpu time    0.0888: real time    0.0888
       DOS:  cpu time    0.0046: real time    0.0046
    CHARGE:  cpu time    0.9792: real time    0.9793
    MIXING:  cpu time    0.0208: real time    0.0208
    --------------------------------------------
      LOOP:  cpu time    6.7608: real time    6.8134

 eigenvalue-minimisations  :   929
 total energy-change (2. order) :-0.9703528E+00  (-0.9319976E-01)
 number of electron     335.9999484 magnetization      24.9367124
 augmentation part       61.6231689 magnetization      17.5830047

 Broyden mixing:
  rms(total) = 0.19196E+01    rms(broyden)= 0.19195E+01
  rms(prec ) = 0.22176E+01
  weight for this iteration     100.00

 eigenvalues of (default mixing * dielectric matrix)
  average eigenvalue GAMMA=   1.4841
  5.1428  1.2914  1.2914  0.8352  0.2013  0.1428

 Free energy of the ion-electron system (eV)
  ---------------------------------------------------
  alpha Z        PSCENC =       525.97314569
  Ewald energy   TEWEN  =     -3606.35770116
  -Hartree energ DENC   =    -18172.86241104
  -exchange      EXHF   =         0.00000000
  -V(xc)+E(xc)   XCENC  =       606.19521674
  PAW double counting   =     29013.85395559   -28469.01899364
  entropy T*S    EENTRO =        -0.06145061
  eigenvalues    EBANDS =     -2994.71354603
  atomic energy  EATOM  =     22798.50317220
  Solvation  Ediel_sol  =         0.00000000
  ---------------------------------------------------
  free energy    TOTEN  =      -298.48861224 eV

  energy without entropy =     -298.42716163  energy(sigma->0) =     -298.45788694


--------------------------------------------------------------------------------------------------------




--------------------------------------- Iteration      1(  12)  ---------------------------------------


    POTLOK:  cpu time    0.1607: real time    0.2107
    SETDIJ:  cpu time    2.6596: real time    2.6597
    EDDIAG:  cpu time    0.7756: real time    0.7757
  RMM-DIIS:  cpu time    2.0819: real time    2.0821
    ORTHCH:  cpu time    0.0880: real time    0.0879
       DOS:  cpu time    0.0035: real time    0.0035
    CHARGE:  cpu time    0.9755: real time    0.9755
    MIXING:  cpu time    0.0213: real time    0.0213
    --------------------------------------------
      LOOP:  cpu time    6.7661: real time    6.8163

 eigenvalue-minimisations  :   927
 total energy-change (2. order) : 0.8490236E-01  (-0.5023474E-01)
 number of electron     335.9999499 magnetization      24.0511713
 augmentation part       61.7212278 magnetization      17.5900622

 Broyden mixing:
  rms(total) = 0.13678E+01    rms(broyden)= 0.13677E+01
  rms(prec ) = 0.14089E+01
  weight for this iteration     100.00

 eigenvalues of (default mixing * dielectric matrix)
  average eigenvalue GAMMA=   1.3696
  5.1183  1.6657  1.0900  0.9273  0.4235  0.2221  0.1404

 Free energy of the ion-electron system (eV)
  ---------------------------------------------------
  alpha Z        PSCENC =       525.97314569
  Ewald energy   TEWEN  =     -3606.35770116
  -Hartree energ DENC   =    -18179.04838738
  -exchange      EXHF   =         0.00000000
  -V(xc)+E(xc)   XCENC  =       606.66478239
  PAW double counting   =     29329.89640858   -28786.66434774
  entropy T*S    EENTRO =        -0.05214447
  eigenvalues    EBANDS =     -2987.31863800
  atomic energy  EATOM  =     22798.50317220
  Solvation  Ediel_sol  =         0.00000000
  ---------------------------------------------------
  free energy    TOTEN  =      -298.40370988 eV

  energy without entropy =     -298.35156541  energy(sigma->0) =     -298.37763765


--------------------------------------------------------------------------------------------------------




--------------------------------------- Iteration      1(  13)  ---------------------------------------


    POTLOK:  cpu time    0.1617: real time    0.2127
    SETDIJ:  cpu time    2.6584: real time    2.6585
    EDDIAG:  cpu time    0.7723: real time    0.7724
  RMM-DIIS:  cpu time    2.0818: real time    2.0819
    ORTHCH:  cpu time    0.0873: real time    0.0873
       DOS:  cpu time    0.0066: real time    0.0066
    CHARGE:  cpu time    0.9797: real time    0.9798
    MIXING:  cpu time    0.0213: real time    0.0213
    --------------------------------------------
      LOOP:  cpu time    6.7692: real time    6.8205

 eigenvalue-minimisations  :   921
 total energy-change (2. order) :-0.7413174E-01  (-0.7708412E-02)
 number of electron     335.9999497 magnetization      22.8145054
 augmentation part       61.6359834 magnetization      16.5348740

 Broyden mixing:
  rms(total) = 0.13305E+01    rms(broyden)= 0.13305E+01
  rms(prec ) = 0.13872E+01
  weight for this iteration     100.00

 eigenvalues of (default mixing * dielectric matrix)
  average eigenvalue GAMMA=   1.3280
  5.0634  2.3085  1.0130  1.0130  0.6095  0.2825  0.1922  0.1419

 Free energy of the ion-electron system (eV)
  ---------------------------------------------------
  alpha Z        PSCENC =       525.97314569
  Ewald energy   TEWEN  =     -3606.35770116
  -Hartree energ DENC   =    -18176.86802424
  -exchange      EXHF   =         0.00000000
  -V(xc)+E(xc)   XCENC  =       606.18454769
  PAW double counting   =     29227.83426503   -28684.31988162
  entropy T*S    EENTRO =        -0.04263686
  eigenvalues    EBANDS =     -2989.38472836
  atomic energy  EATOM  =     22798.50317220
  Solvation  Ediel_sol  =         0.00000000
  ---------------------------------------------------
  free energy    TOTEN  =      -298.47784162 eV

  energy without entropy =     -298.43520476  energy(sigma->0) =     -298.45652319


--------------------------------------------------------------------------------------------------------




--------------------------------------- Iteration      1(  14)  ---------------------------------------


    POTLOK:  cpu time    0.1621: real time    0.2109
    SETDIJ:  cpu time    2.6574: real time    2.6575
    EDDIAG:  cpu time    0.7744: real time    0.7745
  RMM-DIIS:  cpu time    2.0585: real time    2.0586
    ORTHCH:  cpu time    0.0868: real time    0.0868
       DOS:  cpu time    0.0046: real time    0.0046
    CHARGE:  cpu time    0.9778: real time    0.9778
    MIXING:  cpu time    0.0223: real time    0.0223
    --------------------------------------------
      LOOP:  cpu time    6.7440: real time    6.7930

 eigenvalue-minimisations  :   912
 total energy-change (2. order) :-0.1377786E+00  (-0.1309783E-01)
 number of electron     335.9999491 magnetization      17.8580447
 augmentation part       61.5522803 magnetization      11.6957002

 Broyden mixing:
  rms(total) = 0.12252E+01    rms(broyden)= 0.12252E+01
  rms(prec ) = 0.12752E+01
  weight for this iteration     100.00

 eigenvalues of (default mixing * dielectric matrix)
  average eigenvalue GAMMA=   1.5470
  5.4984  3.9790  1.2125  0.9425  0.9425  0.8100  0.2218  0.1411  0.1748

 Free energy of the ion-electron system (eV)
  ---------------------------------------------------
  alpha Z        PSCENC =       525.97314569
  Ewald energy   TEWEN  =     -3606.35770116
  -Hartree energ DENC   =    -18173.95208634
  -exchange      EXHF   =         0.00000000
  -V(xc)+E(xc)   XCENC  =       605.59190445
  PAW double counting   =     29093.66554857   -28549.79981600
  entropy T*S    EENTRO =        -0.04740192
  eigenvalues    EBANDS =     -2992.19238571
  atomic energy  EATOM  =     22798.50317220
  Solvation  Ediel_sol  =         0.00000000
  ---------------------------------------------------
  free energy    TOTEN  =      -298.61562021 eV

  energy without entropy =     -298.56821829  energy(sigma->0) =     -298.59191925


--------------------------------------------------------------------------------------------------------




--------------------------------------- Iteration      1(  15)  ---------------------------------------


    POTLOK:  cpu time    0.1629: real time    0.2124
    SETDIJ:  cpu time    2.6573: real time    2.6574
    EDDIAG:  cpu time    0.7745: real time    0.7745
  RMM-DIIS:  cpu time    2.0510: real time    2.0511
    ORTHCH:  cpu time    0.0868: real time    0.0868
       DOS:  cpu time    0.0044: real time    0.0045
    CHARGE:  cpu time    0.9744: real time    0.9744
    MIXING:  cpu time    0.0226: real time    0.0226
    --------------------------------------------
      LOOP:  cpu time    6.7341: real time    6.7838

 eigenvalue-minimisations  :   913
 total energy-change (2. order) :-0.1278217E+01  (-0.4108016E-01)
 number of electron     335.9999489 magnetization      11.7051991
 augmentation part       61.5726002 magnetization       6.7904620

 Broyden mixing:
  rms(total) = 0.16055E+01    rms(broyden)= 0.16054E+01
  rms(prec ) = 0.18525E+01
  weight for this iteration     100.00

 eigenvalues of (default mixing * dielectric matrix)
  average eigenvalue GAMMA=   1.8558
  8.7935  4.6562  1.5356  1.0168  1.0168  0.7627  0.2512  0.2120  0.1414  0.1715

 Free energy of the ion-electron system (eV)
  ---------------------------------------------------
  alpha Z        PSCENC =       525.97314569
  Ewald energy   TEWEN  =     -3606.35770116
  -Hartree energ DENC   =    -18171.79071209
  -exchange      EXHF   =         0.00000000
  -V(xc)+E(xc)   XCENC  =       605.02313263
  PAW double counting   =     28931.47572093   -28387.79905004
  entropy T*S    EENTRO =        -0.05539330
  eigenvalues    EBANDS =     -2994.86615206
  atomic energy  EATOM  =     22798.50317220
  Solvation  Ediel_sol  =         0.00000000
  ---------------------------------------------------
  free energy    TOTEN  =      -299.89383718 eV

  energy without entropy =     -299.83844389  energy(sigma->0) =     -299.86614054


--------------------------------------------------------------------------------------------------------




--------------------------------------- Iteration      1(  16)  ---------------------------------------


    POTLOK:  cpu time    0.1611: real time    0.2100
    SETDIJ:  cpu time    2.6573: real time    2.6573
    EDDIAG:  cpu time    0.7745: real time    0.7746
  RMM-DIIS:  cpu time    2.0499: real time    2.0500
    ORTHCH:  cpu time    0.0873: real time    0.0873
       DOS:  cpu time    0.0051: real time    0.0051
    CHARGE:  cpu time    0.9789: real time    0.9789
    MIXING:  cpu time    0.0331: real time    0.0394
    --------------------------------------------
      LOOP:  cpu time    6.7471: real time    6.8026

 eigenvalue-minimisations  :   912
 total energy-change (2. order) :-0.7283044E-01  (-0.4353265E-01)
 number of electron     335.9999491 magnetization      11.4045481
 augmentation part       61.6906695 magnetization       8.0217602

 Broyden mixing:
  rms(total) = 0.99256E+00    rms(broyden)= 0.99252E+00
  rms(prec ) = 0.10557E+01
  weight for this iteration     100.00

 eigenvalues of (default mixing * dielectric matrix)
  average eigenvalue GAMMA=   1.7260
  8.8248  4.6627  1.6674  1.0348  1.0348  0.7554  0.2320  0.2313  0.2313  0.1414
  0.1707

 Free energy of the ion-electron system (eV)
  ---------------------------------------------------
  alpha Z        PSCENC =       525.97314569
  Ewald energy   TEWEN  =     -3606.35770116
  -Hartree energ DENC   =    -18171.47471510
  -exchange      EXHF   =         0.00000000
  -V(xc)+E(xc)   XCENC  =       604.95364539
  PAW double counting   =     28834.26512878   -28291.17612659
  entropy T*S    EENTRO =        -0.09264785
  eigenvalues    EBANDS =     -2994.56056899
  atomic energy  EATOM  =     22798.50317220
  Solvation  Ediel_sol  =         0.00000000
  ---------------------------------------------------
  free energy    TOTEN  =      -299.96666762 eV

  energy without entropy =     -299.87401977  energy(sigma->0) =     -299.92034370


--------------------------------------------------------------------------------------------------------




--------------------------------------- Iteration      1(  17)  ---------------------------------------


    POTLOK:  cpu time    0.1622: real time    0.2119
    SETDIJ:  cpu time    2.6574: real time    2.6575
    EDDIAG:  cpu time    0.7733: real time    0.7733
  RMM-DIIS:  cpu time    2.0805: real time    2.0806
    ORTHCH:  cpu time    0.0890: real time    0.0890
       DOS:  cpu time    0.0078: real time    0.0078
    CHARGE:  cpu time    0.9799: real time    0.9799
    MIXING:  cpu time    0.0261: real time    0.0269
    --------------------------------------------
      LOOP:  cpu time    6.7762: real time    6.8270

 eigenvalue-minimisations  :   935
 total energy-change (2. order) : 0.2529202E-01  (-0.5621603E-02)
 number of electron     335.9999492 magnetization      11.4042009
 augmentation part       61.7255798 magnetization       8.1221282

 Broyden mixing:
  rms(total) = 0.89904E+00    rms(broyden)= 0.89904E+00
  rms(prec ) = 0.92697E+00
  weight for this iteration     100.00

 eigenvalues of (default mixing * dielectric matrix)
  average eigenvalue GAMMA=   1.5831
  8.8209  4.6634  1.6716  1.0353  1.0353  0.7551  0.2321  0.2305  0.2305  0.1414
  0.1707  0.0108

 Free energy of the ion-electron system (eV)
  ---------------------------------------------------
  alpha Z        PSCENC =       525.97314569
  Ewald energy   TEWEN  =     -3606.35770116
  -Hartree energ DENC   =    -18171.44395461
  -exchange      EXHF   =         0.00000000
  -V(xc)+E(xc)   XCENC  =       604.98905133
  PAW double counting   =     28825.36405771   -28282.22105244
  entropy T*S    EENTRO =        -0.09523706
  eigenvalues    EBANDS =     -2994.65285727
  atomic energy  EATOM  =     22798.50317220
  Solvation  Ediel_sol  =         0.00000000
  ---------------------------------------------------
  free energy    TOTEN  =      -299.94137560 eV

  energy without entropy =     -299.84613853  energy(sigma->0) =     -299.89375706


--------------------------------------------------------------------------------------------------------




--------------------------------------- Iteration      1(  18)  ---------------------------------------


    POTLOK:  cpu time    0.1630: real time    0.2134
    SETDIJ:  cpu time    2.6579: real time    2.6580
    EDDIAG:  cpu time    0.7730: real time    0.7731
  RMM-DIIS:  cpu time    2.2613: real time    2.2614
    ORTHCH:  cpu time    0.0890: real time    0.0890
       DOS:  cpu time    0.0054: real time    0.0054
    CHARGE:  cpu time    0.9801: real time    0.9801
    MIXING:  cpu time    0.0267: real time    0.0272
    --------------------------------------------
      LOOP:  cpu time    6.9564: real time    7.0076

 eigenvalue-minimisations  :  1031
 total energy-change (2. order) : 0.9133412E-03  (-0.6285039E-03)
 number of electron     335.9999492 magnetization      12.6907005
 augmentation part       61.7218365 magnetization       9.3972343

 Broyden mixing:
  rms(total) = 0.90007E+00    rms(broyden)= 0.90007E+00
  rms(prec ) = 0.92831E+00
  weight for this iteration     100.00

 eigenvalues of (default mixing * dielectric matrix)
  average eigenvalue GAMMA=   1.4467
  7.4791  5.2819  1.6897  1.0272  1.0272  0.7665  0.3471  0.3471  0.2363  0.2104
  0.1414  0.1711  0.0827

 Free energy of the ion-electron system (eV)
  ---------------------------------------------------
  alpha Z        PSCENC =       525.97314569
  Ewald energy   TEWEN  =     -3606.35770116
  -Hartree energ DENC   =    -18171.44310538
  -exchange      EXHF   =         0.00000000
  -V(xc)+E(xc)   XCENC  =       604.99024584
  PAW double counting   =     28825.32146208   -28282.17811601
  entropy T*S    EENTRO =        -0.09523578
  eigenvalues    EBANDS =     -2994.65432975
  atomic energy  EATOM  =     22798.50317220
  Solvation  Ediel_sol  =         0.00000000
  ---------------------------------------------------
  free energy    TOTEN  =      -299.94046225 eV

  energy without entropy =     -299.84522648  energy(sigma->0) =     -299.89284437


--------------------------------------------------------------------------------------------------------




--------------------------------------- Iteration      1(  19)  ---------------------------------------


    POTLOK:  cpu time    0.1659: real time    0.2128
    SETDIJ:  cpu time    2.6559: real time    2.6561
    EDDIAG:  cpu time    0.7727: real time    0.7728
  RMM-DIIS:  cpu time    2.0544: real time    2.0545
    ORTHCH:  cpu time    0.0875: real time    0.0875
       DOS:  cpu time    0.0042: real time    0.0042
    CHARGE:  cpu time    0.9796: real time    0.9796
    MIXING:  cpu time    0.0271: real time    0.0274
    --------------------------------------------
      LOOP:  cpu time    6.7473: real time    6.7949

 eigenvalue-minimisations  :   916
 total energy-change (2. order) : 0.2585181E-02  (-0.4951468E-02)
 number of electron     335.9999492 magnetization      12.3303331
 augmentation part       61.7311532 magnetization       8.4921316

 Broyden mixing:
  rms(total) = 0.87294E+00    rms(broyden)= 0.87293E+00
  rms(prec ) = 0.92841E+00
  weight for this iteration     100.00

 eigenvalues of (default mixing * dielectric matrix)
  average eigenvalue GAMMA=   1.4213
  7.1929  5.5729  2.0002  1.0524  1.0524  0.7506  0.5490  0.5490  0.3147  0.2249
  0.2130  0.1414  0.1709  0.1136

 Free energy of the ion-electron system (eV)
  ---------------------------------------------------
  alpha Z        PSCENC =       525.97314569
  Ewald energy   TEWEN  =     -3606.35770116
  -Hartree energ DENC   =    -18174.70173827
  -exchange      EXHF   =         0.00000000
  -V(xc)+E(xc)   XCENC  =       605.35538160
  PAW double counting   =     28654.88627110   -28110.98772895
  entropy T*S    EENTRO =        -0.09210914
  eigenvalues    EBANDS =     -2992.51657015
  atomic energy  EATOM  =     22798.50317220
  Solvation  Ediel_sol  =         0.00000000
  ---------------------------------------------------
  free energy    TOTEN  =      -299.93787707 eV

  energy without entropy =     -299.84576793  energy(sigma->0) =     -299.89182250


--------------------------------------------------------------------------------------------------------




--------------------------------------- Iteration      1(  20)  ---------------------------------------


    POTLOK:  cpu time    0.1635: real time    0.2124
    SETDIJ:  cpu time    2.6567: real time    2.6568
    EDDIAG:  cpu time    0.7772: real time    0.7772
  RMM-DIIS:  cpu time    2.0498: real time    2.0498
    ORTHCH:  cpu time    0.0867: real time    0.0867
       DOS:  cpu time    0.0049: real time    0.0049
    CHARGE:  cpu time    0.9759: real time    0.9759
    MIXING:  cpu time    0.0280: real time    0.0291
    --------------------------------------------
      LOOP:  cpu time    6.7426: real time    6.7929

 eigenvalue-minimisations  :   912
 total energy-change (2. order) :-0.5932219E-01  (-0.2650170E-02)
 number of electron     335.9999493 magnetization      11.5699272
 augmentation part       61.7244417 magnetization       7.9624027

 Broyden mixing:
  rms(total) = 0.94646E+00    rms(broyden)= 0.94646E+00
  rms(prec ) = 0.10337E+01
  weight for this iteration     100.00

 eigenvalues of (default mixing * dielectric matrix)
  average eigenvalue GAMMA=   1.4248
  6.9374  5.9915  2.6334  1.0655  1.0655  0.7603  0.7603  0.7364  0.3303  0.1414
  0.1709  0.2258  0.2258  0.2095  0.1177

 Free energy of the ion-electron system (eV)
  ---------------------------------------------------
  alpha Z        PSCENC =       525.97314569
  Ewald energy   TEWEN  =     -3606.35770116
  -Hartree energ DENC   =    -18175.65258769
  -exchange      EXHF   =         0.00000000
  -V(xc)+E(xc)   XCENC  =       605.35663897
  PAW double counting   =     28634.48426574   -28090.31127802
  entropy T*S    EENTRO =        -0.09110161
  eigenvalues    EBANDS =     -2991.90175341
  atomic energy  EATOM  =     22798.50317220
  Solvation  Ediel_sol  =         0.00000000
  ---------------------------------------------------
  free energy    TOTEN  =      -299.99719926 eV

  energy without entropy =     -299.90609766  energy(sigma->0) =     -299.95164846


--------------------------------------------------------------------------------------------------------




--------------------------------------- Iteration      1(  21)  ---------------------------------------


    POTLOK:  cpu time    0.1623: real time    0.2113
    SETDIJ:  cpu time    2.6555: real time    2.6556
    EDDIAG:  cpu time    0.7729: real time    0.7729
  RMM-DIIS:  cpu time    2.0527: real time    2.0528
    ORTHCH:  cpu time    0.0866: real time    0.0867
       DOS:  cpu time    0.0047: real time    0.0047
    CHARGE:  cpu time    0.9823: real time    0.9823
    MIXING:  cpu time    0.0290: real time    0.0325
    --------------------------------------------
      LOOP:  cpu time    6.7460: real time    6.7988

 eigenvalue-minimisations  :   912
 total energy-change (2. order) : 0.1731606E-01  (-0.4258520E-02)
 number of electron     335.9999493 magnetization      10.8421536
 augmentation part       61.6890005 magnetization       7.5372078

 Broyden mixing:
  rms(total) = 0.95315E+00    rms(broyden)= 0.95314E+00
  rms(prec ) = 0.10164E+01
  weight for this iteration     100.00

 eigenvalues of (default mixing * dielectric matrix)
  average eigenvalue GAMMA=   1.4909
  6.7339  6.7339  3.7632  1.0666  1.0666  0.9833  0.9833  0.7508  0.3652  0.3652
  0.2299  0.2109  0.1414  0.1723  0.1696  0.1184

 Free energy of the ion-electron system (eV)
  ---------------------------------------------------
  alpha Z        PSCENC =       525.97314569
  Ewald energy   TEWEN  =     -3606.35770116
  -Hartree energ DENC   =    -18177.61603134
  -exchange      EXHF   =         0.00000000
  -V(xc)+E(xc)   XCENC  =       605.33991447
  PAW double counting   =     28642.05471438   -28097.55882782
  entropy T*S    EENTRO =        -0.09310790
  eigenvalues    EBANDS =     -2990.22516174
  atomic energy  EATOM  =     22798.50317220
  Solvation  Ediel_sol  =         0.00000000
  ---------------------------------------------------
  free energy    TOTEN  =      -299.97988320 eV

  energy without entropy =     -299.88677530  energy(sigma->0) =     -299.93332925


--------------------------------------------------------------------------------------------------------




--------------------------------------- Iteration      1(  22)  ---------------------------------------


    POTLOK:  cpu time    0.1616: real time    0.2119
    SETDIJ:  cpu time    2.6558: real time    2.6558
    EDDIAG:  cpu time    0.7722: real time    0.7723
  RMM-DIIS:  cpu time    2.0610: real time    2.0611
    ORTHCH:  cpu time    0.0872: real time    0.0872
       DOS:  cpu time    0.0050: real time    0.0050
    CHARGE:  cpu time    0.9803: real time    0.9804
    MIXING:  cpu time    0.0292: real time    0.0307
    --------------------------------------------
      LOOP:  cpu time    6.7523: real time    6.8043

 eigenvalue-minimisations  :   912
 total energy-change (2. order) :-0.2875943E-01  (-0.8466505E-02)
 number of electron     335.9999491 magnetization      10.4739745
 augmentation part       61.6385311 magnetization       7.3956513

 Broyden mixing:
  rms(total) = 0.11316E+01    rms(broyden)= 0.11316E+01
  rms(prec ) = 0.11805E+01
  weight for this iteration     100.00

 eigenvalues of (default mixing * dielectric matrix)
  average eigenvalue GAMMA=   1.5425
  7.4106  7.4106  4.3191  1.0793  1.0793  1.0561  1.0561  0.7551  0.3736  0.3736
  0.1185  0.2647  0.2319  0.2131  0.1414  0.1717  0.1677

 Free energy of the ion-electron system (eV)
  ---------------------------------------------------
  alpha Z        PSCENC =       525.97314569
  Ewald energy   TEWEN  =     -3606.35770116
  -Hartree energ DENC   =    -18182.12601727
  -exchange      EXHF   =         0.00000000
  -V(xc)+E(xc)   XCENC  =       605.44307244
  PAW double counting   =     28654.92283063   -28109.80779621
  entropy T*S    EENTRO =        -0.08870981
  eigenvalues    EBANDS =     -2986.47063916
  atomic energy  EATOM  =     22798.50317220
  Solvation  Ediel_sol  =         0.00000000
  ---------------------------------------------------
  free energy    TOTEN  =      -300.00864264 eV

  energy without entropy =     -299.91993282  energy(sigma->0) =     -299.96428773


--------------------------------------------------------------------------------------------------------




--------------------------------------- Iteration      1(  23)  ---------------------------------------


    POTLOK:  cpu time    0.1629: real time    0.2140
    SETDIJ:  cpu time    2.6540: real time    2.6541
    EDDIAG:  cpu time    0.7717: real time    0.7717
  RMM-DIIS:  cpu time    2.0602: real time    2.0603
    ORTHCH:  cpu time    0.0868: real time    0.0868
       DOS:  cpu time    0.0050: real time    0.0050
    CHARGE:  cpu time    0.9765: real time    0.9766
    MIXING:  cpu time    0.0269: real time    0.0269
    --------------------------------------------
      LOOP:  cpu time    6.7440: real time    6.7953

 eigenvalue-minimisations  :   912
 total energy-change (2. order) :-0.2758618E-01  (-0.8207440E-02)
 number of electron     335.9999489 magnetization      10.6331317
 augmentation part       61.6025216 magnetization       7.7153716

 Broyden mixing:
  rms(total) = 0.13951E+01    rms(broyden)= 0.13951E+01
  rms(prec ) = 0.14423E+01
  weight for this iteration     100.00

 eigenvalues of (default mixing * dielectric matrix)
  average eigenvalue GAMMA=   1.5371
  7.4196  7.4196  4.5620  1.4241  1.4241  1.0167  1.0167  0.7436  0.4718  0.4468
  0.4468  0.1185  0.1414  0.2411  0.2240  0.2114  0.1717  0.1681

 Free energy of the ion-electron system (eV)
  ---------------------------------------------------
  alpha Z        PSCENC =       525.97314569
  Ewald energy   TEWEN  =     -3606.35770116
  -Hartree energ DENC   =    -18186.67467392
  -exchange      EXHF   =         0.00000000
  -V(xc)+E(xc)   XCENC  =       605.61911847
  PAW double counting   =     28671.65387286   -28125.98859118
  entropy T*S    EENTRO =        -0.08572980
  eigenvalues    EBANDS =     -2982.67884198
  atomic energy  EATOM  =     22798.50317220
  Solvation  Ediel_sol  =         0.00000000
  ---------------------------------------------------
  free energy    TOTEN  =      -300.03622881 eV

  energy without entropy =     -299.95049901  energy(sigma->0) =     -299.99336391


--------------------------------------------------------------------------------------------------------




--------------------------------------- Iteration      1(  24)  ---------------------------------------


    POTLOK:  cpu time    0.1633: real time    0.2128
    SETDIJ:  cpu time    2.6534: real time    2.6534
    EDDIAG:  cpu time    0.7715: real time    0.7715
  RMM-DIIS:  cpu time    2.0952: real time    2.0952
    ORTHCH:  cpu time    0.0857: real time    0.0857
       DOS:  cpu time    0.0034: real time    0.0034
    CHARGE:  cpu time    0.9770: real time    0.9771
    MIXING:  cpu time    0.0272: real time    0.0272
    --------------------------------------------
      LOOP:  cpu time    6.7767: real time    6.8264

 eigenvalue-minimisations  :   931
 total energy-change (2. order) :-0.5436388E-01  (-0.7297853E-02)
 number of electron     335.9999489 magnetization      10.7310434
 augmentation part       61.6139310 magnetization       7.7019112

 Broyden mixing:
  rms(total) = 0.16177E+01    rms(broyden)= 0.16177E+01
  rms(prec ) = 0.16838E+01
  weight for this iteration     100.00

 eigenvalues of (default mixing * dielectric matrix)
  average eigenvalue GAMMA=   1.4754
  7.3480  7.3480  4.5892  1.5382  1.5382  1.0125  1.0125  0.7376  0.4716  0.4716
  0.4582  0.1185  0.1414  0.2466  0.2240  0.2240  0.2147  0.1713  0.1665

 Free energy of the ion-electron system (eV)
  ---------------------------------------------------
  alpha Z        PSCENC =       525.97314569
  Ewald energy   TEWEN  =     -3606.35770116
  -Hartree energ DENC   =    -18191.44803116
  -exchange      EXHF   =         0.00000000
  -V(xc)+E(xc)   XCENC  =       606.01206441
  PAW double counting   =     28736.87498824   -28191.12508094
  entropy T*S    EENTRO =        -0.08458162
  eigenvalues    EBANDS =     -2978.43856836
  atomic energy  EATOM  =     22798.50317220
  Solvation  Ediel_sol  =         0.00000000
  ---------------------------------------------------
  free energy    TOTEN  =      -300.09059269 eV

  energy without entropy =     -300.00601107  energy(sigma->0) =     -300.04830188


--------------------------------------------------------------------------------------------------------




--------------------------------------- Iteration      1(  25)  ---------------------------------------


    POTLOK:  cpu time    0.1626: real time    0.2122
    SETDIJ:  cpu time    2.6537: real time    2.6538
    EDDIAG:  cpu time    0.7701: real time    0.7701
  RMM-DIIS:  cpu time    2.1839: real time    2.1840
    ORTHCH:  cpu time    0.0885: real time    0.0885
       DOS:  cpu time    0.0060: real time    0.0060
    CHARGE:  cpu time    0.9848: real time    0.9849
    MIXING:  cpu time    0.0309: real time    0.0313
    --------------------------------------------
      LOOP:  cpu time    6.8805: real time    6.9308

 eigenvalue-minimisations  :   970
 total energy-change (2. order) : 0.3986544E-02  (-0.1416387E-02)
 number of electron     335.9999489 magnetization      10.5860260
 augmentation part       61.6144477 magnetization       7.5026409

 Broyden mixing:
  rms(total) = 0.16750E+01    rms(broyden)= 0.16750E+01
  rms(prec ) = 0.17421E+01
  weight for this iteration     100.00

 eigenvalues of (default mixing * dielectric matrix)
  average eigenvalue GAMMA=   1.4151
  7.4124  7.4124  4.5714  1.4825  1.4825  1.0126  1.0126  0.7386  0.4677  0.4677
  0.4688  0.2432  0.1185  0.1414  0.2557  0.2306  0.2306  0.2135  0.1673  0.1715

 Free energy of the ion-electron system (eV)
[...]
    MIXING:  cpu time    0.0260: real time    0.0260
    OFIELD:  cpu time    0.0001: real time    0.0001

  FORCE on cell =-STRESS in cart. coord.  units (eV):
  Direction    XX          YY          ZZ          XY          YZ          ZX
  --------------------------------------------------------------------------------------
  Alpha Z   578.79988   578.79988   578.79988
  Ewald    -502.08472  -502.08472 -2719.16943    -0.00000    -0.00000     0.00000
  Hartree  6743.11429  6743.11429  4691.98691     0.00002    -0.00536     0.00536
  E(xc)   -1596.34724 -1596.34724 -1598.68726    -0.00000     0.00002    -0.00002
  Local  -11195.12850-11195.12850 -6959.97388    -0.00008     0.00619    -0.00619
  n-local  -858.65759  -858.65757  -848.27322    -0.00006     0.00001    -0.00001
  augment   834.55806   834.55806   843.88006     0.00002    -0.00010     0.00011
  Kinetic  5994.85758  5994.85759  6010.88019     0.00005    -0.00043     0.00044
  Fock        0.00000     0.00000     0.00000     0.00000     0.00000     0.00000
  -------------------------------------------------------------------------------------
  Total      -0.88822    -0.88822    -0.55675    -0.00005     0.00031    -0.00031
  in kB      -0.88558    -0.88558    -0.55509    -0.00005     0.00031    -0.00031
  external pressure =       -0.78 kB  Pullay stress =        0.00 kB


 VOLUME and BASIS-vectors are now :
 -----------------------------------------------------------------------------
  energy-cutoff  :      600.00
  volume of cell :     1606.95
      direct lattice vectors                 reciprocal lattice vectors
    11.594544941  0.000000000  0.000000000     0.086247456  0.000000000  0.000000000
     0.000000000 11.594544941  0.000000000     0.000000000  0.086247456  0.000000000
     0.000000000  0.000000000 11.953508581     0.000000000  0.000000000  0.083657446

  length of vectors
    11.594544941 11.594544941 11.953508581     0.086247456  0.086247456  0.083657446


 FORCES acting on ions
    electron-ion (+dipol)            ewald-force                    non-local-force                 convergence-correction
 -----------------------------------------------------------------------------------------------
   -.335E-02 0.132E+03 0.163E+03   0.851E-03 -.144E+03 -.177E+03   -.257E-04 0.107E+02 0.138E+02   0.268E-02 -.941E-03 -.851E-03
   0.322E-02 -.132E+03 0.163E+03   0.851E-03 0.144E+03 -.177E+03   -.301E-03 -.107E+02 0.138E+02   -.403E-02 0.120E-02 -.139E-02
   -.132E+03 0.128E-03 0.163E+03   0.144E+03 0.521E-03 -.177E+03   -.107E+02 -.627E-04 0.138E+02   -.532E-03 -.684E-03 -.193E-02
   0.132E+03 -.200E-03 0.163E+03   -.144E+03 0.521E-03 -.177E+03   0.107E+02 -.224E-04 0.138E+02   -.109E-03 -.375E-03 -.228E-02
   -.200E-03 0.132E+03 -.163E+03   0.521E-03 -.144E+03 0.177E+03   -.224E-04 0.107E+02 -.138E+02   -.375E-03 -.109E-03 0.228E-02
   0.128E-03 -.132E+03 -.163E+03   0.521E-03 0.144E+03 0.177E+03   -.627E-04 -.107E+02 -.138E+02   -.684E-03 -.532E-03 0.193E-02
   0.132E+03 -.335E-02 -.163E+03   -.144E+03 0.851E-03 0.177E+03   0.107E+02 -.257E-04 -.138E+02   -.941E-03 0.268E-02 0.851E-03
   -.132E+03 0.322E-02 -.163E+03   0.144E+03 0.851E-03 0.177E+03   -.107E+02 -.301E-03 -.138E+02   0.120E-02 -.403E-02 0.139E-02
   -.208E+03 -.227E-02 -.565E-02   0.221E+03 -.180E-02 0.973E-03   -.145E+02 0.362E-04 0.327E-03   0.479E-03 0.427E-02 0.472E-02
   0.208E+03 0.859E-02 -.734E-02   -.221E+03 -.180E-02 -.973E-03   0.145E+02 -.443E-03 0.128E-03   -.196E-02 -.673E-02 0.857E-02
   -.227E-02 -.208E+03 0.564E-02   -.180E-02 0.221E+03 -.973E-03   0.362E-04 -.145E+02 -.327E-03   0.427E-02 0.479E-03 -.472E-02
   0.859E-02 0.208E+03 0.734E-02   -.180E-02 -.221E+03 0.973E-03   -.443E-03 0.145E+02 -.128E-03   -.673E-02 -.196E-02 -.857E-02
   0.208E+03 -.578E-02 -.526E-02   -.221E+03 0.938E-03 0.187E-03   0.145E+02 0.231E-03 -.157E-05   -.193E-02 0.476E-02 0.529E-02
   -.208E+03 0.307E-03 -.448E-03   0.221E+03 0.938E-03 -.187E-03   -.145E+02 0.194E-03 -.704E-04   0.150E-03 -.147E-02 0.657E-03
   -.578E-02 0.208E+03 0.526E-02   0.938E-03 -.221E+03 -.187E-03   0.231E-03 0.145E+02 0.157E-05   0.476E-02 -.193E-02 -.529E-02
   0.307E-03 -.208E+03 0.442E-03   0.938E-03 0.221E+03 0.187E-03   0.194E-03 -.145E+02 0.704E-04   -.147E-02 0.150E-03 -.657E-03
   -.166E-02 0.132E+03 0.163E+03   0.521E-03 -.144E+03 -.177E+03   0.147E-03 0.107E+02 0.138E+02   0.107E-02 -.257E-02 -.237E-02
   -.711E-02 -.132E+03 0.163E+03   0.521E-03 0.144E+03 -.177E+03   0.324E-03 -.107E+02 0.138E+02   0.669E-02 0.235E-02 -.147E-02
   -.132E+03 -.280E-02 0.163E+03   0.144E+03 0.851E-03 -.177E+03   -.107E+02 0.134E-04 0.138E+02   0.788E-03 0.212E-02 0.881E-03
   0.132E+03 -.324E-02 0.163E+03   -.144E+03 0.851E-03 -.177E+03   0.107E+02 0.704E-04 0.138E+02   -.593E-03 0.258E-02 0.151E-02
   -.324E-02 0.132E+03 -.163E+03   0.851E-03 -.144E+03 0.177E+03   0.704E-04 0.107E+02 -.138E+02   0.258E-02 -.593E-03 -.151E-02
   -.280E-02 -.132E+03 -.163E+03   0.851E-03 0.144E+03 0.177E+03   0.134E-04 -.107E+02 -.138E+02   0.212E-02 0.788E-03 -.881E-03
   0.132E+03 -.166E-02 -.163E+03   -.144E+03 0.521E-03 0.177E+03   0.107E+02 0.147E-03 -.138E+02   -.257E-02 0.107E-02 0.237E-02
   -.132E+03 -.711E-02 -.163E+03   0.144E+03 0.521E-03 0.177E+03   -.107E+02 0.324E-03 -.138E+02   0.235E-02 0.669E-02 0.147E-02
   -.208E+03 -.113E-02 0.546E-03   0.221E+03 0.938E-03 0.187E-03   -.145E+02 -.638E-04 -.424E-03   0.977E-03 0.636E-04 -.560E-03
   0.208E+03 0.197E-03 -.113E-02   -.221E+03 0.938E-03 -.187E-03   0.145E+02 0.184E-03 -.998E-04   -.117E-02 -.133E-02 0.139E-02
   -.113E-02 -.208E+03 -.552E-03   0.938E-03 0.221E+03 -.187E-03   -.638E-04 -.145E+02 0.424E-03   0.636E-04 0.977E-03 0.560E-03
   0.197E-03 0.208E+03 0.114E-02   0.938E-03 -.221E+03 0.187E-03   0.184E-03 0.145E+02 0.998E-04   -.133E-02 -.117E-02 -.139E-02
   0.208E+03 0.180E-02 0.633E-04   -.221E+03 -.180E-02 0.973E-03   0.145E+02 -.346E-03 -.828E-04   -.213E-03 0.210E-03 -.108E-02
   -.208E+03 0.685E-02 -.618E-02   0.221E+03 -.180E-02 -.973E-03   -.145E+02 -.403E-03 -.737E-04   0.212E-02 -.491E-02 0.748E-02
   0.181E-02 0.208E+03 -.567E-04   -.180E-02 -.221E+03 -.973E-03   -.346E-03 0.145E+02 0.828E-04   0.210E-03 -.213E-03 0.108E-02
   0.685E-02 -.208E+03 0.618E-02   -.180E-02 0.221E+03 0.973E-03   -.403E-03 -.145E+02 0.737E-04   -.491E-02 0.212E-02 -.748E-02
   0.833E+02 0.833E+02 -.706E-06   -.826E+02 -.826E+02 0.112E-13   -.788E+00 -.788E+00 0.440E-22   -.907E-03 -.907E-03 -.114E-12
   -.833E+02 -.833E+02 0.705E-06   0.826E+02 0.826E+02 0.290E-13   0.788E+00 0.788E+00 0.387E-22   0.145E-02 0.145E-02 -.769E-13
   -.833E+02 0.833E+02 0.321E-02   0.826E+02 -.826E+02 -.256E-03   0.788E+00 -.787E+00 -.358E-04   -.121E-02 0.112E-02 -.304E-02
   0.833E+02 -.833E+02 -.321E-02   -.826E+02 0.826E+02 0.256E-03   -.787E+00 0.788E+00 0.358E-04   0.112E-02 -.121E-02 0.304E-02
   -.833E+02 -.833E+02 0.561E-02   0.826E+02 0.826E+02 -.130E-02   0.788E+00 0.788E+00 -.228E-04   -.143E-03 -.354E-03 -.443E-02
   0.833E+02 0.833E+02 0.311E-02   -.826E+02 -.826E+02 0.662E-03   -.788E+00 -.788E+00 -.448E-04   0.194E-02 -.159E-03 -.379E-02
   0.833E+02 -.833E+02 0.167E-02   -.826E+02 0.826E+02 -.919E-03   -.787E+00 0.788E+00 -.647E-05   -.276E-02 0.226E-02 -.810E-03
   -.833E+02 0.833E+02 -.167E-02   0.826E+02 -.826E+02 0.919E-03   0.788E+00 -.787E+00 0.647E-05   0.226E-02 -.276E-02 0.810E-03
   0.833E+02 0.833E+02 -.706E-06   -.826E+02 -.826E+02 -.534E-14   -.788E+00 -.788E+00 -.494E-22   -.418E-02 -.418E-02 0.245E-13
   -.833E+02 -.833E+02 0.706E-06   0.826E+02 0.826E+02 0.249E-13   0.788E+00 0.788E+00 0.183E-22   0.368E-02 0.368E-02 0.106E-12
   -.833E+02 0.833E+02 -.916E-03   0.826E+02 -.826E+02 0.383E-03   0.788E+00 -.788E+00 0.453E-04   0.115E-03 -.195E-03 0.613E-03
   0.833E+02 -.833E+02 0.916E-03   -.826E+02 0.826E+02 -.383E-03   -.788E+00 0.788E+00 -.453E-04   -.195E-03 0.115E-03 -.613E-03
   -.833E+02 -.833E+02 -.561E-02   0.826E+02 0.826E+02 0.130E-02   0.788E+00 0.788E+00 0.228E-04   -.354E-03 -.143E-03 0.443E-02
   0.833E+02 0.833E+02 -.311E-02   -.826E+02 -.826E+02 -.662E-03   -.788E+00 -.788E+00 0.448E-04   -.159E-03 0.194E-02 0.379E-02
   0.833E+02 -.833E+02 0.462E-03   -.826E+02 0.826E+02 0.105E-02   -.788E+00 0.788E+00 -.727E-04   -.657E-03 0.450E-02 -.144E-02
   -.833E+02 0.833E+02 -.462E-03   0.826E+02 -.826E+02 -.105E-02   0.788E+00 -.788E+00 0.727E-04   0.450E-02 -.657E-03 0.144E-02
 -----------------------------------------------------------------------------------------------
   -.171E-02 -.171E-02 0.229E-07   0.426E-13 0.995E-13 0.354E-12   -.656E-02 -.656E-02 0.178E-14   0.745E-02 0.745E-02 0.375E-12
 
 
 POSITION                                       TOTAL-FORCE (eV/Angst)
 -----------------------------------------------------------------------------------
      5.79727      3.66179      5.56017         0.000168     -0.489876      0.385409
      5.79727      7.93287      5.56017        -0.000249      0.489113      0.385619
      7.93287      0.00000      8.54855         0.489116     -0.000080      0.385723
      3.66179      0.00000      8.54855        -0.489889     -0.000059      0.385525
      0.00000      3.66179      3.40496        -0.000059     -0.489889     -0.385525
      0.00000      7.93287      3.40496        -0.000080      0.489116     -0.385723
      3.66179      5.79727      6.39333        -0.489876      0.000168     -0.385409
      7.93287      5.79727      6.39333         0.489113     -0.000249     -0.385619
      8.14853      8.69591      7.47094        -0.884622      0.000249      0.000371
      9.24329      8.69591      1.49419         0.884528     -0.000367      0.000384
      8.69591      8.14853      4.48257         0.000249     -0.884622     -0.000371
      8.69591      9.24329     10.45932        -0.000367      0.884528     -0.000384
      9.24329      2.89864      1.49419         0.884546      0.000159      0.000220
      8.14853      2.89864      7.47094        -0.884694     -0.000018     -0.000044
      2.89864      9.24329     10.45932         0.000159      0.884546     -0.000220
      2.89864      8.14853      4.48257        -0.000018     -0.884694      0.000044
      0.00000      9.45906     11.53693         0.000103     -0.489771      0.385500
      0.00000      2.13548     11.53693         0.000446      0.489778      0.385521
      2.13548      5.79727      2.57180         0.489763      0.000194      0.385446
      9.45906      5.79727      2.57180        -0.489753      0.000279      0.385439
      5.79727      9.45906      9.38171         0.000279     -0.489753     -0.385439
      5.79727      2.13548      9.38171         0.000194      0.489763     -0.385446
      9.45906      0.00000      0.41658        -0.489771      0.000103     -0.385500
      2.13548      0.00000      0.41658         0.489778      0.000446     -0.385521
      2.35126      2.89864      1.49419        -0.884629     -0.000179     -0.000248
      3.44601      2.89864      7.47094         0.884536      0.000007     -0.000027
      2.89864      2.35126     10.45932        -0.000179     -0.884629      0.000248
      2.89864      3.44601      4.48257         0.000007      0.884536      0.000027
      3.44601      8.69591      7.47094         0.884542     -0.000115     -0.000125
      2.35126      8.69591      1.49419        -0.884555     -0.000251      0.000255
      8.69591      3.44601      4.48257        -0.000115      0.884542      0.000125
      8.69591      2.35126     10.45932        -0.000251     -0.884555     -0.000255
      3.95606      3.95606      5.97675        -0.093429     -0.093429     -0.000000
      7.63849      7.63849      5.97675         0.093298      0.093298     -0.000000
      7.63849      9.75333      8.96513         0.093632     -0.093024     -0.000125
      9.75333      7.63849      2.98838        -0.093024      0.093632      0.000125
      7.63849      1.84121      8.96513         0.093659      0.093075     -0.000139
      3.95606      9.75333      8.96513        -0.093371     -0.093299     -0.000069
      3.95606      7.63849      5.97675        -0.093017      0.093821     -0.000069
      7.63849      3.95606      5.97675         0.093821     -0.093017      0.000069
      9.75333      9.75333      0.00000        -0.093562     -0.093562     -0.000000
      1.84121      1.84121      0.00000         0.093671      0.093671     -0.000000
      1.84121      3.95606      2.98838         0.093402     -0.093354      0.000125
      3.95606      1.84121      8.96513        -0.093354      0.093402     -0.000125
      1.84121      7.63849      2.98838         0.093075      0.093659      0.000139
      9.75333      3.95606      2.98838        -0.093299     -0.093371      0.000069
      9.75333      1.84121      0.00000        -0.093518      0.093595     -0.000005
      1.84121      9.75333      0.00000         0.093595     -0.093518      0.000005
 -----------------------------------------------------------------------------------
    total drift:                               -0.000814     -0.000814      0.000000


--------------------------------------------------------------------------------------------------------



  FREE ENERGIE OF THE ION-ELECTRON SYSTEM (eV)
  ---------------------------------------------------
  free  energy   TOTEN  =      -303.55183809 eV

  energy  without entropy=     -303.52788529  energy(sigma->0) =     -303.53986169
 
 d Force = 0.0000000E+00[ 0.000E+00, 0.000E+00]  d Energy = 0.1106645E+00-0.111E+00
 d Force = 0.0000000E+00[ 0.000E+00, 0.000E+00]  d Ewald  =-0.2323548E+02 0.232E+02


--------------------------------------------------------------------------------------------------------


    POTLOK:  cpu time    2.8133: real time    2.8134


--------------------------------------------------------------------------------------------------------


 stress matrix after NEB project (eV)
     -0.88822     -0.00005     -0.00031
     -0.00005     -0.88822      0.00031
     -0.00031      0.00031     -0.55675
  FORCES: max atom, RMS     0.884694    0.629367
  FORCE total and by dimension    4.360380    0.884694
  Stress total and by dimension    1.373991    0.888223


--------------------------------------------------------------------------------------------------------


  
 reached required accuracy - stopping structural energy minimisation
 writing wavefunctions
     LOOP+:  cpu time  135.9655: real time  136.9986
    4ORBIT:  cpu time    0.0000: real time    0.0000
 


 total charge     
 
# of ion       s       p       d       tot
------------------------------------------
    1        1.570   3.356   0.000   4.927
    2        1.570   3.356   0.000   4.927
    3        1.570   3.356   0.000   4.927
    4        1.570   3.356   0.000   4.927
    5        1.570   3.356   0.000   4.927
    6        1.570   3.356   0.000   4.927
    7        1.570   3.356   0.000   4.927
    8        1.570   3.356   0.000   4.927
    9        1.575   3.349   0.000   4.924
   10        1.575   3.349   0.000   4.924
   11        1.575   3.349   0.000   4.924
   12        1.575   3.349   0.000   4.924
   13        1.575   3.349   0.000   4.924
   14        1.575   3.349   0.000   4.924
   15        1.575   3.349   0.000   4.924
   16        1.575   3.349   0.000   4.924
   17        1.570   3.357   0.000   4.927
   18        1.570   3.356   0.000   4.927
   19        1.570   3.356   0.000   4.927
   20        1.570   3.356   0.000   4.927
   21        1.570   3.356   0.000   4.927
   22        1.570   3.356   0.000   4.927
   23        1.570   3.357   0.000   4.927
   24        1.570   3.356   0.000   4.927
   25        1.575   3.349   0.000   4.924
   26        1.575   3.349   0.000   4.924
   27        1.575   3.349   0.000   4.924
   28        1.575   3.349   0.000   4.924
   29        1.575   3.349   0.000   4.924
   30        1.575   3.349   0.000   4.924
   31        1.575   3.349   0.000   4.924
   32        1.575   3.349   0.000   4.924
   33        0.595   0.722   6.955   8.272
   34        0.595   0.722   6.955   8.272
   35        0.595   0.722   6.955   8.272
   36        0.595   0.722   6.955   8.272
   37        0.595   0.722   6.955   8.272
   38        0.595   0.722   6.955   8.272
   39        0.595   0.722   6.955   8.272
   40        0.595   0.722   6.955   8.272
   41        0.595   0.722   6.955   8.272
   42        0.595   0.722   6.955   8.272
   43        0.595   0.722   6.955   8.272
   44        0.595   0.722   6.955   8.272
   45        0.595   0.722   6.955   8.272
   46        0.595   0.722   6.955   8.272
   47        0.595   0.722   6.955   8.272
   48        0.595   0.722   6.955   8.272
--------------------------------------------------
tot         59.849 118.826 111.282 289.957
 


 magnetization (x)
 
# of ion       s       p       d       tot
------------------------------------------
    1        0.001   0.028   0.000   0.029
    2        0.001   0.028   0.000   0.029
    3        0.001   0.028   0.000   0.029
    4        0.001   0.028   0.000   0.029
    5        0.001   0.028   0.000   0.029
    6        0.001   0.028   0.000   0.029
    7        0.001   0.028   0.000   0.029
    8        0.001   0.028   0.000   0.029
    9        0.001   0.005   0.000   0.006
   10        0.001   0.005   0.000   0.006
   11        0.001   0.005   0.000   0.006
   12        0.001   0.005   0.000   0.006
   13        0.001   0.005   0.000   0.006
   14        0.001   0.005   0.000   0.006
   15        0.001   0.005   0.000   0.006
   16        0.001   0.005   0.000   0.006
   17        0.001   0.028   0.000   0.029
   18        0.001   0.028   0.000   0.029
   19        0.001   0.028   0.000   0.029
   20        0.001   0.028   0.000   0.029
   21        0.001   0.028   0.000   0.029
   22        0.001   0.028   0.000   0.029
   23        0.001   0.028   0.000   0.029
   24        0.001   0.028   0.000   0.029
   25        0.001   0.005   0.000   0.006
   26        0.001   0.005   0.000   0.006
   27        0.001   0.005   0.000   0.006
   28        0.001   0.005   0.000   0.006
   29        0.001   0.005   0.000   0.006
   30        0.001   0.005   0.000   0.006
   31        0.001   0.005   0.000   0.006
   32        0.001   0.005   0.000   0.006
   33        0.002  -0.001   0.059   0.060
   34        0.002  -0.001   0.059   0.060
   35        0.002  -0.001   0.060   0.061
   36        0.002  -0.001   0.060   0.061
   37        0.002  -0.001   0.060   0.061
   38        0.002  -0.001   0.060   0.061
   39        0.002  -0.001   0.059   0.060
   40        0.002  -0.001   0.059   0.060
   41        0.002  -0.001   0.059   0.060
   42        0.002  -0.001   0.059   0.060
   43        0.002  -0.001   0.060   0.061
   44        0.002  -0.001   0.060   0.061
   45        0.002  -0.001   0.060   0.061
   46        0.002  -0.001   0.060   0.061
   47        0.002  -0.001   0.059   0.060
   48        0.002  -0.001   0.059   0.060
--------------------------------------------------
tot          0.062   0.511   0.955   1.528
 

 total amount of memory used by VASP MPI-rank0    57901. kBytes
=======================================================================

   base      :      30000. kBytes
   nonlr-proj:       7382. kBytes
   fftplans  :       3937. kBytes
   grid      :       9839. kBytes
   one-center:        155. kBytes
   wavefun   :       6588. kBytes
 
  
  
 General timing and accounting informations for this job:
 ========================================================
  
                  Total CPU time used (sec):     1449.909
                            User time (sec):     1424.166
                          System time (sec):       25.743
                         Elapsed time (sec):     1463.486
  
                   Maximum memory used (kb):      264240.
                   Average memory used (kb):           0.
  
                          Minor page faults:        48189
                          Major page faults:          429
                 Voluntary context switches:         4017
