 vasp.5.4.4.18Apr17-6-g9f103f2a35 (build Aug 21 2019 12:36:18) complex          
  
 executed on IFC18.0.1.163_CrayMP date 2019.08.24  14:48:24
 running on  330 total cores
 distrk:  each k-point on   66 cores,    5 groups
 distr:  one band on NCORES_PER_BAND=  11 cores,    6 groups


--------------------------------------------------------------------------------------------------------


 INCAR:
 POTCAR:    PAW_PBE O 08Apr2002                   
 POTCAR:    PAW_PBE Ir 06Sep2000                  

 ----------------------------------------------------------------------------- 
|                                                                             |
|           W    W    AA    RRRRR   N    N  II  N    N   GGGG   !!!           |
|           W    W   A  A   R    R  NN   N  II  NN   N  G    G  !!!           |
|           W    W  A    A  R    R  N N  N  II  N N  N  G       !!!           |
|           W WW W  AAAAAA  RRRRR   N  N N  II  N  N N  G  GGG   !            |
|           WW  WW  A    A  R   R   N   NN  II  N   NN  G    G                |
|           W    W  A    A  R    R  N    N  II  N    N   GGGG   !!!           |
|                                                                             |
|      You have enabled k-point parallelism (KPAR>1).                         |
|      This developmental code was originally  written by Paul Kent at ORNL,  |
|      and carefully double checked in Vienna.                                |
|      GW as well as linear response parallelism added by Martijn Marsman     |
|      and Georg Kresse.                                                      |
|      Carefully verify results versus KPAR=1.                                |
|      Report problems to Paul Kent and Vienna.                               |
|                                                                             |
 ----------------------------------------------------------------------------- 

 POTCAR:    PAW_PBE O 08Apr2002                   
   VRHFIN =O: s2p4                                                              
   LEXCH  = PE                                                                  
   EATOM  =   432.3788 eV,   31.7789 Ry                                         
                                                                                
   TITEL  = PAW_PBE O 08Apr2002                                                 
   LULTRA =        F    use ultrasoft PP ?                                      
   IUNSCR =        1    unscreen: 0-lin 1-nonlin 2-no                           
   RPACOR =    1.200    partial core radius                                     
   POMASS =   16.000; ZVAL   =    6.000    mass and valenz                      
   RCORE  =    1.520    outmost cutoff radius                                   
   RWIGS  =    1.550; RWIGS  =    0.820    wigner-seitz radius (au A)           
   ENMAX  =  400.000; ENMIN  =  300.000 eV                                      
   ICORE  =        2    local potential                                         
   LCOR   =        T    correct aug charges                                     
   LPAW   =        T    paw PP                                                  
   EAUG   =  605.392                                                            
   DEXC   =    0.000                                                            
   RMAX   =    1.553    core radius for proj-oper                               
   RAUG   =    1.300    factor for augmentation sphere                          
   RDEP   =    1.550    radius for radial grids                                 
   RDEPT  =    1.329    core radius for aug-charge                              
                                                                                
   Atomic configuration                                                         
    4 entries                                                                   
     n  l   j            E        occ.                                          
     1  0  0.50      -514.6923   2.0000                                         
     2  0  0.50       -23.9615   2.0000                                         
     2  1  0.50        -9.0305   4.0000                                         
     3  2  1.50        -9.5241   0.0000                                         
   Description                                                                  
     l       E           TYP  RCUT    TYP  RCUT                                 
     0    -23.9615318     23  1.200                                             
     0     -9.5240782     23  1.200                                             
     1     -9.0304911     23  1.520                                             
     1      8.1634956     23  1.520                                             
     2     -9.5240782      7  1.500                                             
  local pseudopotential read in
  partial core-charges read in
  partial kinetic energy density read in
  kinetic energy density of atom read in
  atomic valenz-charges read in
  non local Contribution for L=           0  read in
    real space projection operators read in
  non local Contribution for L=           0  read in
    real space projection operators read in
  non local Contribution for L=           1  read in
    real space projection operators read in
  non local Contribution for L=           1  read in
    real space projection operators read in
    PAW grid and wavefunctions read in
 
   number of l-projection  operators is LMAX  =           4
   number of lm-projection operators is LMMAX =           8
 
 POTCAR:    PAW_PBE Ir 06Sep2000                  
   VRHFIN =Ir: s1d8                                                             
   LEXCH  = PE                                                                  
   EATOM  =   560.1833 eV,   41.1723 Ry                                         
                                                                                
   TITEL  = PAW_PBE Ir 06Sep2000                                                
   LULTRA =        F    use ultrasoft PP ?                                      
   IUNSCR =        1    unscreen: 0-lin 1-nonlin 2-no                           
   RPACOR =    2.250    partial core radius                                     
   POMASS =  192.220; ZVAL   =    9.000    mass and valenz                      
   RCORE  =    2.600    outmost cutoff radius                                   
   RWIGS  =    2.690; RWIGS  =    1.423    wigner-seitz radius (au A)           
   ENMAX  =  210.864; ENMIN  =  158.148 eV                                      
   RCLOC  =    1.857    cutoff for local pot                                    
   LCOR   =        T    correct aug charges                                     
   LPAW   =        T    paw PP                                                  
   EAUG   =  318.962                                                            
   DEXC   =    0.000                                                            
   RMAX   =    2.667    core radius for proj-oper                               
   RAUG   =    1.300    factor for augmentation sphere                          
   RDEP   =    2.748    radius for radial grids                                 
   RDEPT  =    2.300    core radius for aug-charge                              
                                                                                
   Atomic configuration                                                         
   16 entries                                                                   
     n  l   j            E        occ.                                          
     1  0  0.50    -76100.0449   2.0000                                         
     2  0  0.50    -13308.1683   2.0000                                         
     2  1  1.50    -11558.0021   6.0000                                         
     3  0  0.50     -3110.7274   2.0000                                         
     3  1  1.50     -2599.2109   6.0000                                         
     3  2  2.50     -2037.1515  10.0000                                         
     4  0  0.50      -661.6001   2.0000                                         
     4  1  1.50      -493.8981   6.0000                                         
     4  2  2.50      -288.1909  10.0000                                         
     4  3  3.50       -59.5718  14.0000                                         
     5  0  0.50       -95.3879   2.0000                                         
     5  1  1.50       -52.2747   6.0000                                         
     5  2  2.50        -5.4180   8.0000                                         
     6  0  0.50        -5.5479   1.0000                                         
     6  1  1.50        -6.8029   0.0000                                         
     5  3  2.50        -1.3606   0.0000                                         
   Description                                                                  
     l       E           TYP  RCUT    TYP  RCUT                                 
     2     -5.4179967     23  2.600                                             
     2     -6.7785793     23  2.600                                             
     0     -5.5478636     23  2.600                                             
     0      2.2542272     23  2.600                                             
     1     -2.7211652     23  2.600                                             
     1     20.4087390     23  2.600                                             
  local pseudopotential read in
  partial core-charges read in
  partial kinetic energy density read in
  atomic valenz-charges read in
  non local Contribution for L=           2  read in
    real space projection operators read in
  non local Contribution for L=           2  read in
    real space projection operators read in
  non local Contribution for L=           0  read in
    real space projection operators read in
  non local Contribution for L=           0  read in
    real space projection operators read in
  non local Contribution for L=           1  read in
    real space projection operators read in
  non local Contribution for L=           1  read in
    real space projection operators read in
    PAW grid and wavefunctions read in
 
   number of l-projection  operators is LMAX  =           6
   number of lm-projection operators is LMMAX =          18
 
 Optimization of the real space projectors (new method)

 maximal supplied QI-value         = 24.76
 optimisation between [QCUT,QGAM] = [ 12.38, 25.00] = [ 42.90,175.06] Ry 
 Optimized for a Real-space Cutoff    1.16 Angstroem

   l    n(q)    QCUT    max X(q) W(low)/X(q) W(high)/X(q)  e(spline) 
   0      9    12.378    20.381    0.16E-03    0.67E-05    0.31E-06
   0      9    12.378    15.268    0.17E-03    0.81E-05    0.33E-06
   1      8    12.378     5.964    0.20E-03    0.16E-03    0.30E-06
   1      8    12.378     5.382    0.18E-03    0.14E-03    0.26E-06
 Optimization of the real space projectors (new method)

 maximal supplied QI-value         = 14.36
 optimisation between [QCUT,QGAM] = [ 12.49, 24.99] = [ 43.72,174.87] Ry 
 Optimized for a Real-space Cutoff    1.47 Angstroem

   l    n(q)    QCUT    max X(q) W(low)/X(q) W(high)/X(q)  e(spline) 
   2     10    12.495   134.116    0.21E-03    0.83E-03    0.17E-05
   2     10    12.495   130.192    0.21E-03    0.83E-03    0.17E-05
   0     11    12.495    60.310    0.70E-04    0.17E-03    0.90E-06
   0     11    12.495    39.218    0.65E-04    0.15E-03    0.85E-06
   1     11    12.495    18.439    0.21E-03    0.37E-04    0.78E-06
   1     11    12.495    12.760    0.17E-03    0.26E-04    0.62E-06
  PAW_PBE O 08Apr2002                   :
 energy of atom  1       EATOM= -432.3788
 kinetic energy error for atom=    0.0168 (will be added to EATOM!!)
  PAW_PBE Ir 06Sep2000                  :
 energy of atom  2       EATOM= -560.1833
 kinetic energy error for atom=    0.0008 (will be added to EATOM!!)
 
 
 POSCAR:  O Ir                                   
  positions in cartesian coordinates
  No initial velocities read in
 exchange correlation table for  LEXCH =        8
   RHO(1)=    0.500       N(1)  =     2000
   RHO(2)=  100.500       N(2)  =     4000

 VTST: version 3.2, (02/03/18)

 CHAIN: initializing optimizer
 
 OPT: Using VASP Conjugate-Gradient optimizer
 CHAIN: Read ICHAIN            0
 
 POSCAR:  O Ir                                   
  positions in cartesian coordinates
  No initial velocities read in
 


--------------------------------------------------------------------------------------------------------


 ion  position               nearest neighbor table
   1  0.500  0.316  0.465-  33 1.91  40 1.91
   2  0.500  0.684  0.465-  34 1.91  39 1.91
   3  0.684  0.000  0.715-  35 1.91  37 1.91
   4  0.316  0.000  0.715-  38 1.91  44 1.91
   5  0.000  0.316  0.285-  43 1.91  46 1.91
   6  0.000  0.684  0.285-  36 1.91  45 1.91
   7  0.316  0.500  0.535-  33 1.91  39 1.91
   8  0.684  0.500  0.535-  34 1.91  40 1.91
   9  0.703  0.750  0.625-  34 1.90  35 1.90
  10  0.797  0.750  0.125-  36 1.90  41 1.90
  11  0.750  0.703  0.375-  34 1.90  36 1.90
  12  0.750  0.797  0.875-  35 1.90  41 1.90
  13  0.797  0.250  0.125-  46 1.90  47 1.90
  14  0.703  0.250  0.625-  37 1.90  40 1.90
  15  0.250  0.797  0.875-  38 1.90  48 1.90
  16  0.250  0.703  0.375-  39 1.90  45 1.90
  17  0.000  0.816  0.965-  41 1.91  48 1.91
  18  0.000  0.184  0.965-  42 1.91  47 1.91
  19  0.184  0.500  0.215-  43 1.91  45 1.91
  20  0.816  0.500  0.215-  36 1.91  46 1.91
  21  0.500  0.816  0.785-  35 1.91  38 1.91
  22  0.500  0.184  0.785-  37 1.91  44 1.91
  23  0.816  0.000  0.035-  41 1.91  47 1.91
  24  0.184  0.000  0.035-  42 1.91  48 1.91
  25  0.203  0.250  0.125-  42 1.90  43 1.90
  26  0.297  0.250  0.625-  33 1.90  44 1.90
  27  0.250  0.203  0.875-  42 1.90  44 1.90
  28  0.250  0.297  0.375-  33 1.90  43 1.90
  29  0.297  0.750  0.625-  38 1.90  39 1.90
  30  0.203  0.750  0.125-  45 1.90  48 1.90
  31  0.750  0.297  0.375-  40 1.90  46 1.90
  32  0.750  0.203  0.875-  37 1.90  47 1.90
  33  0.341  0.341  0.500-  26 1.90  28 1.90   1 1.91   7 1.91
  34  0.659  0.659  0.500-   9 1.90  11 1.90   2 1.91   8 1.91
  35  0.659  0.841  0.750-   9 1.90  12 1.90  21 1.91   3 1.91
  36  0.841  0.659  0.250-  10 1.90  11 1.90  20 1.91   6 1.91
  37  0.659  0.159  0.750-  14 1.90  32 1.90  22 1.91   3 1.91
  38  0.341  0.841  0.750-  15 1.90  29 1.90  21 1.91   4 1.91
  39  0.341  0.659  0.500-  16 1.90  29 1.90   7 1.91   2 1.91
  40  0.659  0.341  0.500-  14 1.90  31 1.90   1 1.91   8 1.91
  41  0.841  0.841  0.000-  10 1.90  12 1.90  17 1.91  23 1.91
  42  0.159  0.159  0.000-  25 1.90  27 1.90  18 1.91  24 1.91
  43  0.159  0.341  0.250-  25 1.90  28 1.90   5 1.91  19 1.91
  44  0.341  0.159  0.750-  26 1.90  27 1.90   4 1.91  22 1.91
  45  0.159  0.659  0.250-  16 1.90  30 1.90  19 1.91   6 1.91
  46  0.841  0.341  0.250-  13 1.90  31 1.90  20 1.91   5 1.91
  47  0.841  0.159  0.000-  13 1.90  32 1.90  23 1.91  18 1.91
  48  0.159  0.841  0.000-  15 1.90  30 1.90  24 1.91  17 1.91
 
  LATTYP: Found a simple tetragonal cell.
 ALAT       =    11.5945000000
 C/A-ratio  =     1.0309629566
  
  Lattice vectors:
  
 A1 = (  11.5945000000,   0.0000000000,   0.0000000000)
 A2 = (   0.0000000000,  11.5945000000,   0.0000000000)
 A3 = (   0.0000000000,   0.0000000000,  11.9535000000)


Analysis of symmetry for initial positions (statically):
=====================================================================
 Subroutine PRICEL returns:
 Original cell was already a primitive cell.
 

 Routine SETGRP: Setting up the symmetry group for a 
 simple tetragonal supercell.


 Subroutine GETGRP returns: Found  2 space group operations
 (whereof  2 operations were pure point group operations)
 out of a pool of 16 trial point group operations.


The static configuration has the point symmetry C_2 .


Analysis of symmetry for dynamics (positions and initial velocities):
=====================================================================
 Subroutine PRICEL returns:
 Original cell was already a primitive cell.
 

 Routine SETGRP: Setting up the symmetry group for a 
 simple tetragonal supercell.


 Subroutine GETGRP returns: Found  2 space group operations
 (whereof  2 operations were pure point group operations)
 out of a pool of 16 trial point group operations.


The dynamic configuration has the point symmetry C_2 .


Analysis of structural, dynamic, and magnetic symmetry:
=====================================================================
 Subroutine PRICEL returns:
 Original cell was already a primitive cell.
 

 Routine SETGRP: Setting up the symmetry group for a 
 simple tetragonal supercell.


 Subroutine GETGRP returns: Found  2 space group operations
 (whereof  2 operations were pure point group operations)
 out of a pool of 16 trial point group operations.


The magnetic configuration has the point symmetry C_2 .


 Subroutine INISYM returns: Found  2 space group operations
 (whereof  2 operations are pure point group operations),
 and found     1 'primitive' translations

 
 
 KPOINTS: KPOINTS created by Atomic Simulation Env

Automatic generation of k-mesh.
Space group operators:
 irot       det(A)        alpha          n_x          n_y          n_z        tau_x        tau_y        tau_z
    1     1.000000     0.000000     1.000000     0.000000     0.000000     0.000000     0.000000     0.000000
    2     1.000000   180.000000     0.707107     0.707107     0.000000     0.000000     0.000000     0.000000
 
 Subroutine IBZKPT returns following result:
 ===========================================
 
 Found      1 irreducible k-points:
 
 Following reciprocal coordinates:
            Coordinates               Weight
  0.000000  0.000000  0.000000      1.000000
 
 Following cartesian coordinates:
            Coordinates               Weight
  0.000000  0.000000  0.000000      1.000000
 


--------------------------------------------------------------------------------------------------------




 Dimension of arrays:
   k-points           NKPTS =      1   k-points in BZ     NKDIM =      1   number of bands    NBANDS=    228
   number of dos      NEDOS =    301   number of ions     NIONS =     48
   non local maximal  LDIM  =      6   non local SUM 2l+1 LMDIM =     18
   total plane-waves  NPLWV = 884736
   max r-space proj   IRMAX =   7386   max aug-charges    IRDMAX=  40008
   dimension x,y,z NGX =    96 NGY =   96 NGZ =   96
   dimension x,y,z NGXF=   192 NGYF=  192 NGZF=  192
   support grid    NGXF=   192 NGYF=  192 NGZF=  192
   ions per type =              32  16
   NGX,Y,Z   is equivalent  to a cutoff of  13.76, 13.76, 13.35 a.u.
   NGXF,Y,Z  is equivalent  to a cutoff of  27.53, 27.53, 26.70 a.u.

 SYSTEM =  unknown system                          
 POSCAR =   O Ir                                   

 Startparameter for this run:
   NWRITE =      2    write-flag & timer
   PREC   = accura    normal or accurate (medium, high low for compatibility)
   ISTART =      0    job   : 0-new  1-cont  2-samecut
   ICHARG =      2    charge: 1-file 2-atom 10-const
   ISPIN  =      2    spin polarized calculation?
   LNONCOLLINEAR =      F non collinear calculations
   LSORBIT =      F    spin-orbit coupling
   INIWAV =      1    electr: 0-lowe 1-rand  2-diag
   LASPH  =      T    aspherical Exc in radial PAW
   METAGGA=      F    non-selfconsistent MetaGGA calc.

 Electronic Relaxation 1
   ENCUT  =  600.0 eV  44.10 Ry    6.64 a.u.  23.16 23.16 23.87*2*pi/ulx,y,z
   ENINI  =  600.0     initial cutoff
   ENAUG  =  605.4 eV  augmentation charge cutoff
   NELM   =    220;   NELMIN=  2; NELMDL= -5     # of ELM steps 
   EDIFF  = 0.1E-05   stopping-criterion for ELM
   LREAL  =      T    real-space projection
   NLSPLINE    = F    spline interpolate recip. space projectors
   LCOMPAT=      F    compatible to vasp.4.4
   GGA_COMPAT  = T    GGA compatible to vasp.4.4-vasp.4.6
   LMAXPAW     = -100 max onsite density
   LMAXMIX     =    6 max onsite mixed and CHGCAR
   VOSKOWN=      0    Vosko Wilk Nusair interpolation
   ROPT   =   -0.00025  -0.00025
 Ionic relaxation
   EDIFFG = -.1E-02   stopping-criterion for IOM
   NSW    =    150    number of steps for IOM
   NBLOCK =      1;   KBLOCK =    150    inner block; outer block 
   IBRION =      2    ionic relax: 0-MD 1-quasi-New 2-CG
   NFREE  =      1    steps in history (QN), initial steepest desc. (CG)
   ISIF   =      3    stress and relaxation
   IWAVPR =     11    prediction:  0-non 1-charg 2-wave 3-comb
   ISYM   =      2    0-nonsym 1-usesym 2-fastsym
   LCORR  =      T    Harris-Foulkes like correction to forces

   POTIM  = 0.0300    time-step for ionic-motion
   TEIN   =    0.0    initial temperature
   TEBEG  =    0.0;   TEEND  =   0.0 temperature during run
   SMASS  =  -3.00    Nose mass-parameter (am)
   estimated Nose-frequenzy (Omega)   =  0.10E-29 period in steps =****** mass=  -0.307E-26a.u.
   SCALEE = 1.0000    scale energy and forces
   NPACO  =    256;   APACO  = 16.0  distance and # of slots for P.C.
   PSTRESS=    0.0 pullay stress

  Mass of Ions in am
   POMASS =  16.00192.22
  Ionic Valenz
   ZVAL   =   6.00  9.00
  Atomic Wigner-Seitz radii
   RWIGS  =  -1.00 -1.00
  virtual crystal weights 
   VCA    =   1.00  1.00
   NELECT =     336.0000    total number of electrons
   NUPDOWN=      -1.0000    fix difference up-down

 DOS related values:
   EMIN   =  10.00;   EMAX   =-10.00  energy-range for DOS
   EFERMI =   0.00
   ISMEAR =     0;   SIGMA  =   0.05  broadening in eV -4-tet -1-fermi 0-gaus

 Electronic relaxation 2 (details)
   IALGO  =     68    algorithm
   LDIAG  =      T    sub-space diagonalisation (order eigenvalues)
   LSUBROT=      F    optimize rotation matrix (better conditioning)
   TURBO    =      0    0=normal 1=particle mesh
   IRESTART =      0    0=no restart 2=restart with 2 vectors
   NREBOOT  =      0    no. of reboots
   NMIN     =      0    reboot dimension
   EREF     =   0.00    reference energy to select bands
   IMIX   =      4    mixing-type and parameters
     AMIX     =   0.20;   BMIX     =  0.00
     AMIX_MAG =   0.10;   BMIX_MAG =  0.00
     AMIN     =   0.10
     WC   =   100.;   INIMIX=   0;  MIXPRE=   1;  MAXMIX= -45

 Intra band minimization:
   WEIMIN = 0.0010     energy-eigenvalue tresh-hold
   EBREAK =  0.11E-08  absolut break condition
   DEPER  =   0.30     relativ break condition  

   TIME   =   0.40     timestep for ELM

  volume/ion in A,a.u.               =      33.48       225.92
  Fermi-wavevector in a.u.,A,eV,Ry     =   0.971676  1.836202 12.846003  0.944155
  Thomas-Fermi vector in A             =   2.101913
 
 Write flags
   LWAVE        =      T    write WAVECAR
   LDOWNSAMPLE  =      F    k-point downsampling of WAVECAR
   LCHARG       =      T    write CHGCAR
   LVTOT        =      F    write LOCPOT, total local potential
   LVHAR        =      F    write LOCPOT, Hartree potential only
   LELF         =      F    write electronic localiz. function (ELF)
   LORBIT       =     11    0 simple, 1 ext, 2 COOP (PROOUT), +10 PAW based schemes


 Dipole corrections
   LMONO  =      F    monopole corrections only (constant potential shift)
   LDIPOL =      F    correct potential (dipole corrections)
   IDIPOL =      0    1-x, 2-y, 3-z, 4-all directions 
   EPSILON=  1.0000000 bulk dielectric constant

 Exchange correlation treatment:
   GGA     =    PE    GGA type
   LEXCH   =     8    internal setting for exchange type
   VOSKOWN=      0    Vosko Wilk Nusair interpolation
   LHFCALC =     F    Hartree Fock is set to
   LHFONE  =     F    Hartree Fock one center treatment
   AEXX    =    0.0000 exact exchange contribution

 Linear response parameters
   LEPSILON=     F    determine dielectric tensor
   LRPA    =     F    only Hartree local field effects (RPA)
   LNABLA  =     F    use nabla operator in PAW spheres
   LVEL    =     F    velocity operator in full k-point grid
   LINTERFAST=   F  fast interpolation
   KINTER  =     0    interpolate to denser k-point grid
   CSHIFT  =0.1000    complex shift for real part using Kramers Kronig
   OMEGAMAX=  -1.0    maximum frequency
   DEG_THRESHOLD= 0.2000000E-02 threshold for treating states as degnerate
   RTIME   =   -0.100 relaxation time in fs
  (WPLASMAI=    0.000 imaginary part of plasma frequency in eV, 0.658/RTIME)
   DFIELD  = 0.0000000 0.0000000 0.0000000 field for delta impulse in time
 
 Orbital magnetization related:
   ORBITALMAG=     F  switch on orbital magnetization
   LCHIMAG   =     F  perturbation theory with respect to B field
   DQ        =  0.001000  dq finite difference perturbation B field
   LLRAUG    =     F  two centre corrections for induced B field



--------------------------------------------------------------------------------------------------------


 conjugate gradient relaxation of ions
 charge density and potential will be updated during run
 spin polarized calculation
 RMM-DIIS sequential band-by-band and
  variant of blocked Davidson during initial phase
 perform sub-space diagonalisation
    before iterative eigenvector-optimisation
 modified Broyden-mixing scheme, WC =      100.0
 initial mixing is a simple linear mixing with ALPHA =  0.2000
 Hartree-type preconditioning will be used
 using additional bands           60
 real space projection scheme for non local part
 use partial core corrections
 calculate Harris-corrections to forces 
   (improved forces if not selfconsistent)
 use gradient corrections 
 use of overlap-Matrix (Vanderbilt PP)
 Gauss-broadening in eV      SIGMA  =   0.05


--------------------------------------------------------------------------------------------------------


  energy-cutoff  :      600.00
  volume of cell :     1606.94
      direct lattice vectors                 reciprocal lattice vectors
    11.594500000  0.000000000  0.000000000     0.086247790  0.000000000  0.000000000
     0.000000000 11.594500000  0.000000000     0.000000000  0.086247790  0.000000000
     0.000000000  0.000000000 11.953500000     0.000000000  0.000000000  0.083657506

  length of vectors
    11.594500000 11.594500000 11.953500000     0.086247790  0.086247790  0.083657506


 
 k-points in units of 2pi/SCALE and weight: KPOINTS created by Atomic Simulation Env
   0.00000000  0.00000000  0.00000000       1.000
 
 k-points in reciprocal lattice and weights: KPOINTS created by Atomic Simulation Env
   0.00000000  0.00000000  0.00000000       1.000
 
 position of ions in fractional coordinates (direct lattice) 
   0.50000000  0.31582000  0.46515000
   0.50000000  0.68419000  0.46515000
   0.68419000  0.00000000  0.71515000
   0.31582000  0.00000000  0.71515000
   0.00000000  0.31582000  0.28485000
   0.00000000  0.68419000  0.28485000
   0.31582000  0.50000000  0.53485000
   0.68419000  0.50000000  0.53485000
   0.70279000  0.75000000  0.62500000
   0.79721000  0.75000000  0.12500000
   0.75000000  0.70279000  0.37500000
   0.75000000  0.79721000  0.87500000
   0.79721000  0.25000000  0.12500000
   0.70279000  0.25000000  0.62500000
   0.25000000  0.79721000  0.87500000
   0.25000000  0.70279000  0.37500000
   0.00000000  0.81582000  0.96515000
   0.00000000  0.18418000  0.96515000
   0.18418000  0.50000000  0.21515000
   0.81582000  0.50000000  0.21515000
   0.50000000  0.81582000  0.78485000
   0.50000000  0.18418000  0.78485000
   0.81582000  0.00000000  0.03485000
   0.18418000  0.00000000  0.03485000
   0.20279000  0.25000000  0.12500000
   0.29721000  0.25000000  0.62500000
   0.25000000  0.20279000  0.87500000
   0.25000000  0.29721000  0.37500000
   0.29721000  0.75000000  0.62500000
   0.20279000  0.75000000  0.12500000
   0.75000000  0.29721000  0.37500000
   0.75000000  0.20279000  0.87500000
   0.34120000  0.34120000  0.50000000
   0.65880000  0.65880000  0.50000000
   0.65880000  0.84120000  0.75000000
   0.84120000  0.65880000  0.25000000
   0.65880000  0.15880000  0.75000000
   0.34120000  0.84120000  0.75000000
   0.34120000  0.65880000  0.50000000
   0.65880000  0.34120000  0.50000000
   0.84120000  0.84120000  0.00000000
   0.15880000  0.15880000  0.00000000
   0.15880000  0.34120000  0.25000000
   0.34120000  0.15880000  0.75000000
   0.15880000  0.65880000  0.25000000
   0.84120000  0.34120000  0.25000000
   0.84120000  0.15880000  0.00000000
   0.15880000  0.84120000  0.00000000
 
 position of ions in cartesian coordinates  (Angst):
   5.79725000  3.66177499  5.56017053
   5.79725000  7.93284096  5.56017053
   7.93284096  0.00000000  8.54854553
   3.66177499  0.00000000  8.54854553
   0.00000000  3.66177499  3.40495447
   0.00000000  7.93284096  3.40495447
   3.66177499  5.79725000  6.39332947
   7.93284096  5.79725000  6.39332947
   8.14849866  8.69587500  7.47093750
   9.24325134  8.69587500  1.49418750
   8.69587500  8.14849866  4.48256250
   8.69587500  9.24325134 10.45931250
   9.24325134  2.89862500  1.49418750
   8.14849866  2.89862500  7.47093750
   2.89862500  9.24325134 10.45931250
   2.89862500  8.14849866  4.48256250
   0.00000000  9.45902499 11.53692053
   0.00000000  2.13547501 11.53692053
   2.13547501  5.79725000  2.57179553
   9.45902499  5.79725000  2.57179553
   5.79725000  9.45902499  9.38170447
   5.79725000  2.13547501  9.38170447
   9.45902499  0.00000000  0.41657947
   2.13547501  0.00000000  0.41657947
   2.35124866  2.89862500  1.49418750
   3.44600134  2.89862500  7.47093750
   2.89862500  2.35124866 10.45931250
   2.89862500  3.44600134  4.48256250
   3.44600134  8.69587500  7.47093750
   2.35124866  8.69587500  1.49418750
   8.69587500  3.44600134  4.48256250
   8.69587500  2.35124866 10.45931250
   3.95604340  3.95604340  5.97675000
   7.63845660  7.63845660  5.97675000
   7.63845660  9.75329340  8.96512500
   9.75329340  7.63845660  2.98837500
   7.63845660  1.84120660  8.96512500
   3.95604340  9.75329340  8.96512500
   3.95604340  7.63845660  5.97675000
   7.63845660  3.95604340  5.97675000
   9.75329340  9.75329340  0.00000000
   1.84120660  1.84120660  0.00000000
   1.84120660  3.95604340  2.98837500
   3.95604340  1.84120660  8.96512500
   1.84120660  7.63845660  2.98837500
   9.75329340  3.95604340  2.98837500
   9.75329340  1.84120660  0.00000000
   1.84120660  9.75329340  0.00000000
 


--------------------------------------------------------------------------------------------------------


 k-point  1 :   0.0000 0.0000 0.0000  plane waves:   53555

 maximum and minimum number of plane-waves per node :      4872     4865

 maximum number of plane-waves:     53555
 maximum index in each direction: 
   IXMAX=   23   IYMAX=   23   IZMAX=   23
   IXMIN=  -23   IYMIN=  -23   IZMIN=  -23


 real space projection operators:
  total allocation   :      23028.75 KBytes
  max/ min on nodes  :       2122.00       2036.56


 parallel 3D FFT for wavefunctions:
    minimum data exchange during FFTs selected (reduces bandwidth)
 parallel 3D FFT for charge:
    minimum data exchange during FFTs selected (reduces bandwidth)


 total amount of memory used by VASP MPI-rank0    66569. kBytes
=======================================================================

   base      :      30000. kBytes
   nonlr-proj:       8621. kBytes
   fftplans  :       6219. kBytes
   grid      :      15584. kBytes
   one-center:        155. kBytes
   wavefun   :       5990. kBytes
 
     INWAV:  cpu time    0.0002: real time    0.0002
 Broyden mixing: mesh for mixing (old mesh)
   NGX = 47   NGY = 47   NGZ = 47
  (NGX  =192   NGY  =192   NGZ  =192)
  gives a total of 103823 points

 initial charge density was supplied:
 charge density of overlapping atoms calculated
 number of electron     336.0000000 magnetization      48.0000000
 keeping initial charge density in first step


--------------------------------------------------------------------------------------------------------


 Maximum index for non-local projection operator          687
 Maximum index for augmentation-charges         1364 (set IRDMAX)


--------------------------------------------------------------------------------------------------------


 First call to EWALD:  gamma=   0.151
 Maximum number of real-space cells 3x 3x 3
 Maximum number of reciprocal cells 3x 3x 3

    FEWALD:  cpu time    0.0184: real time    0.0194


--------------------------------------- Iteration      1(   1)  ---------------------------------------


    POTLOK:  cpu time    0.5097: real time    0.5712
    SETDIJ:  cpu time    2.6857: real time    2.6930
     EDDAV:  cpu time    3.6715: real time    3.7818
       DOS:  cpu time    0.0069: real time    0.0103
    --------------------------------------------
      LOOP:  cpu time    6.8742: real time    7.0567

 eigenvalue-minimisations  :   912
 total energy-change (2. order) : 0.3577062E+04  (-0.1516860E+05)
 number of electron     336.0000000 magnetization      48.0000000
 augmentation part      336.0000000 magnetization      48.0000000

 Free energy of the ion-electron system (eV)
  ---------------------------------------------------
  alpha Z        PSCENC =       578.80478617
  Ewald energy   TEWEN  =     -3723.26919290
  -Hartree energ DENC   =    -17986.00779524
  -exchange      EXHF   =         0.00000000
  -V(xc)+E(xc)   XCENC  =       598.04207384
  PAW double counting   =     19905.99098173   -19318.37474755
  entropy T*S    EENTRO =        -0.03128631
  eigenvalues    EBANDS =       723.40367193
  atomic energy  EATOM  =     22798.50317220
  Solvation  Ediel_sol  =         0.00000000
  ---------------------------------------------------
  free energy    TOTEN  =      3577.06166389 eV

  energy without entropy =     3577.09295020  energy(sigma->0) =     3577.07730705


--------------------------------------------------------------------------------------------------------




--------------------------------------- Iteration      1(   2)  ---------------------------------------


     EDDAV:  cpu time    3.7260: real time    3.7680
       DOS:  cpu time    0.0039: real time    0.0039
    --------------------------------------------
      LOOP:  cpu time    3.7296: real time    3.7716

 eigenvalue-minimisations  :   936
 total energy-change (2. order) :-0.3230481E+04  (-0.2959783E+04)
 number of electron     336.0000000 magnetization      48.0000000
 augmentation part      336.0000000 magnetization      48.0000000

 Free energy of the ion-electron system (eV)
  ---------------------------------------------------
  alpha Z        PSCENC =       578.80478617
  Ewald energy   TEWEN  =     -3723.26919290
  -Hartree energ DENC   =    -17986.00779524
  -exchange      EXHF   =         0.00000000
  -V(xc)+E(xc)   XCENC  =       598.04207384
  PAW double counting   =     19905.99098173   -19318.37474755
  entropy T*S    EENTRO =        -0.04036073
  eigenvalues    EBANDS =     -2507.06851626
  atomic energy  EATOM  =     22798.50317220
  Solvation  Ediel_sol  =         0.00000000
  ---------------------------------------------------
  free energy    TOTEN  =       346.58040128 eV

  energy without entropy =      346.62076201  energy(sigma->0) =      346.60058165


--------------------------------------------------------------------------------------------------------




--------------------------------------- Iteration      1(   3)  ---------------------------------------


     EDDAV:  cpu time    4.5545: real time    4.6075
       DOS:  cpu time    0.0042: real time    0.0042
    --------------------------------------------
      LOOP:  cpu time    4.5588: real time    4.6117

 eigenvalue-minimisations  :  1212
 total energy-change (2. order) :-0.6719553E+03  (-0.6468703E+03)
 number of electron     336.0000000 magnetization      48.0000000
 augmentation part      336.0000000 magnetization      48.0000000

 Free energy of the ion-electron system (eV)
  ---------------------------------------------------
  alpha Z        PSCENC =       578.80478617
  Ewald energy   TEWEN  =     -3723.26919290
  -Hartree energ DENC   =    -17986.00779524
  -exchange      EXHF   =         0.00000000
  -V(xc)+E(xc)   XCENC  =       598.04207384
  PAW double counting   =     19905.99098173   -19318.37474755
  entropy T*S    EENTRO =        -0.06779715
  eigenvalues    EBANDS =     -3178.99634052
  atomic energy  EATOM  =     22798.50317220
  Solvation  Ediel_sol  =         0.00000000
  ---------------------------------------------------
  free energy    TOTEN  =      -325.37485940 eV

  energy without entropy =     -325.30706225  energy(sigma->0) =     -325.34096083


--------------------------------------------------------------------------------------------------------




--------------------------------------- Iteration      1(   4)  ---------------------------------------


     EDDAV:  cpu time    4.3784: real time    4.4279
       DOS:  cpu time    0.0036: real time    0.0036
    --------------------------------------------
      LOOP:  cpu time    4.3820: real time    4.4315

 eigenvalue-minimisations  :  1164
 total energy-change (2. order) :-0.3452042E+02  (-0.3278960E+02)
 number of electron     336.0000000 magnetization      48.0000000
 augmentation part      336.0000000 magnetization      48.0000000

 Free energy of the ion-electron system (eV)
  ---------------------------------------------------
  alpha Z        PSCENC =       578.80478617
  Ewald energy   TEWEN  =     -3723.26919290
  -Hartree energ DENC   =    -17986.00779524
  -exchange      EXHF   =         0.00000000
  -V(xc)+E(xc)   XCENC  =       598.04207384
  PAW double counting   =     19905.99098173   -19318.37474755
  entropy T*S    EENTRO =        -0.09288201
  eigenvalues    EBANDS =     -3213.49167253
  atomic energy  EATOM  =     22798.50317220
  Solvation  Ediel_sol  =         0.00000000
  ---------------------------------------------------
  free energy    TOTEN  =      -359.89527627 eV

  energy without entropy =     -359.80239426  energy(sigma->0) =     -359.84883526


--------------------------------------------------------------------------------------------------------




--------------------------------------- Iteration      1(   5)  ---------------------------------------


     EDDAV:  cpu time    4.3024: real time    4.3517
       DOS:  cpu time    0.0036: real time    0.0036
    CHARGE:  cpu time    0.9522: real time    0.9621
    MIXING:  cpu time    0.0539: real time    0.0586
    --------------------------------------------
      LOOP:  cpu time    5.3121: real time    5.3761

 eigenvalue-minimisations  :  1140
 total energy-change (2. order) :-0.9645933E+00  (-0.9531313E+00)
 number of electron     335.9999931 magnetization      44.5930741
 augmentation part       59.8244198 magnetization      36.4633524

 Broyden mixing:
  rms(total) = 0.14712E+02    rms(broyden)= 0.14711E+02
  rms(prec ) = 0.15299E+02
  weight for this iteration     100.00

 Free energy of the ion-electron system (eV)
  ---------------------------------------------------
  alpha Z        PSCENC =       578.80478617
  Ewald energy   TEWEN  =     -3723.26919290
  -Hartree energ DENC   =    -17986.00779524
  -exchange      EXHF   =         0.00000000
  -V(xc)+E(xc)   XCENC  =       598.04207384
  PAW double counting   =     19905.99098173   -19318.37474755
  entropy T*S    EENTRO =        -0.09383599
  eigenvalues    EBANDS =     -3214.45531181
  atomic energy  EATOM  =     22798.50317220
  Solvation  Ediel_sol  =         0.00000000
  ---------------------------------------------------
  free energy    TOTEN  =      -360.85986953 eV

  energy without entropy =     -360.76603354  energy(sigma->0) =     -360.81295153


--------------------------------------------------------------------------------------------------------




--------------------------------------- Iteration      1(   6)  ---------------------------------------


    POTLOK:  cpu time    0.4761: real time    0.5264
    SETDIJ:  cpu time    2.6842: real time    2.6844
    EDDIAG:  cpu time    0.7129: real time    0.7208
  RMM-DIIS:  cpu time    1.8492: real time    1.8522
    ORTHCH:  cpu time    0.0815: real time    0.0815
       DOS:  cpu time    0.0041: real time    0.0041
    CHARGE:  cpu time    0.9442: real time    0.9442
    MIXING:  cpu time    0.0544: real time    0.0612
    --------------------------------------------
      LOOP:  cpu time    6.8066: real time    6.8749

 eigenvalue-minimisations  :   918
 total energy-change (2. order) : 0.6350822E+02  (-0.1163871E+02)
 number of electron     335.9999941 magnetization      39.0820483
 augmentation part       60.9664127 magnetization      29.6718971

 Broyden mixing:
  rms(total) = 0.11663E+02    rms(broyden)= 0.11663E+02
  rms(prec ) = 0.11715E+02
  weight for this iteration     100.00

 eigenvalues of (default mixing * dielectric matrix)
  average eigenvalue GAMMA=   2.2000
  2.2000

 Free energy of the ion-electron system (eV)
  ---------------------------------------------------
  alpha Z        PSCENC =       578.80478617
  Ewald energy   TEWEN  =     -3723.26919290
  -Hartree energ DENC   =    -18119.84296157
  -exchange      EXHF   =         0.00000000
  -V(xc)+E(xc)   XCENC  =       615.60121123
  PAW double counting   =     22007.48436771   -21435.62099096
  entropy T*S    EENTRO =        -0.05564319
  eigenvalues    EBANDS =     -3018.95639808
  atomic energy  EATOM  =     22798.50317220
  Solvation  Ediel_sol  =         0.00000000
  ---------------------------------------------------
  free energy    TOTEN  =      -297.35164939 eV

  energy without entropy =     -297.29600620  energy(sigma->0) =     -297.32382779


--------------------------------------------------------------------------------------------------------




--------------------------------------- Iteration      1(   7)  ---------------------------------------


    POTLOK:  cpu time    0.4763: real time    0.5256
    SETDIJ:  cpu time    2.6802: real time    2.6803
    EDDIAG:  cpu time    0.7103: real time    0.7104
  RMM-DIIS:  cpu time    1.9233: real time    1.9235
    ORTHCH:  cpu time    0.0813: real time    0.0813
       DOS:  cpu time    0.0042: real time    0.0042
    CHARGE:  cpu time    0.9424: real time    0.9425
    MIXING:  cpu time    0.0566: real time    0.0586
    --------------------------------------------
      LOOP:  cpu time    6.8747: real time    6.9263

 eigenvalue-minimisations  :   956
 total energy-change (2. order) :-0.3018601E+01  (-0.4699436E+01)
 number of electron     335.9999945 magnetization      31.0294531
 augmentation part       62.6119184 magnetization      22.5641340

 Broyden mixing:
  rms(total) = 0.69210E+01    rms(broyden)= 0.69209E+01
  rms(prec ) = 0.69745E+01
  weight for this iteration     100.00

 eigenvalues of (default mixing * dielectric matrix)
  average eigenvalue GAMMA=   2.5160
  1.4446  3.5874

 Free energy of the ion-electron system (eV)
  ---------------------------------------------------
  alpha Z        PSCENC =       578.80478617
  Ewald energy   TEWEN  =     -3723.26919290
  -Hartree energ DENC   =    -18178.01565702
  -exchange      EXHF   =         0.00000000
  -V(xc)+E(xc)   XCENC  =       622.04481823
  PAW double counting   =     25626.60994843   -25070.43009281
  entropy T*S    EENTRO =        -0.07367597
  eigenvalues    EBANDS =     -2954.54435705
  atomic energy  EATOM  =     22798.50317220
  Solvation  Ediel_sol  =         0.00000000
  ---------------------------------------------------
  free energy    TOTEN  =      -300.37025072 eV

  energy without entropy =     -300.29657475  energy(sigma->0) =     -300.33341274


--------------------------------------------------------------------------------------------------------




--------------------------------------- Iteration      1(   8)  ---------------------------------------


    POTLOK:  cpu time    0.4765: real time    0.5262
    SETDIJ:  cpu time    2.6830: real time    2.6831
    EDDIAG:  cpu time    0.7105: real time    0.7105
  RMM-DIIS:  cpu time    1.8302: real time    1.8303
    ORTHCH:  cpu time    0.0812: real time    0.0812
       DOS:  cpu time    0.0044: real time    0.0044
    CHARGE:  cpu time    0.9456: real time    0.9456
    MIXING:  cpu time    0.0562: real time    0.0564
    --------------------------------------------
      LOOP:  cpu time    6.7876: real time    6.8379

 eigenvalue-minimisations  :   912
 total energy-change (2. order) :-0.2363882E+01  (-0.2008156E+01)
 number of electron     335.9999944 magnetization      28.0554307
 augmentation part       61.1603643 magnetization      21.1883029

 Broyden mixing:
  rms(total) = 0.26387E+01    rms(broyden)= 0.26386E+01
  rms(prec ) = 0.28509E+01
  weight for this iteration     100.00

 eigenvalues of (default mixing * dielectric matrix)
  average eigenvalue GAMMA=   2.1008
  4.3015  1.2273  0.7736

 Free energy of the ion-electron system (eV)
  ---------------------------------------------------
  alpha Z        PSCENC =       578.80478617
  Ewald energy   TEWEN  =     -3723.26919290
  -Hartree energ DENC   =    -18146.84136567
  -exchange      EXHF   =         0.00000000
  -V(xc)+E(xc)   XCENC  =       612.97826903
  PAW double counting   =     30057.95553621   -29514.48897952
  entropy T*S    EENTRO =        -0.06814980
  eigenvalues    EBANDS =     -2966.30820871
  atomic energy  EATOM  =     22798.50317220
  Solvation  Ediel_sol  =         0.00000000
  ---------------------------------------------------
  free energy    TOTEN  =      -302.73413297 eV

  energy without entropy =     -302.66598317  energy(sigma->0) =     -302.70005807


--------------------------------------------------------------------------------------------------------




--------------------------------------- Iteration      1(   9)  ---------------------------------------


    POTLOK:  cpu time    0.5254: real time    0.5258
    SETDIJ:  cpu time    2.6840: real time    2.6841
    EDDIAG:  cpu time    0.7077: real time    0.7077
  RMM-DIIS:  cpu time    1.8317: real time    1.8318
    ORTHCH:  cpu time    0.0810: real time    0.0810
       DOS:  cpu time    0.0046: real time    0.0046
    CHARGE:  cpu time    0.9393: real time    0.9393
    MIXING:  cpu time    0.0568: real time    0.0571
    --------------------------------------------
      LOOP:  cpu time    6.8305: real time    6.8315

 eigenvalue-minimisations  :   914
 total energy-change (2. order) : 0.9832298E-01  (-0.2767470E+00)
 number of electron     335.9999942 magnetization      27.1788831
 augmentation part       61.5235131 magnetization      21.2223247

 Broyden mixing:
  rms(total) = 0.29192E+01    rms(broyden)= 0.29191E+01
  rms(prec ) = 0.36028E+01
  weight for this iteration     100.00

 eigenvalues of (default mixing * dielectric matrix)
  average eigenvalue GAMMA=   1.6633
  4.4467  1.1301  0.9104  0.1660

 Free energy of the ion-electron system (eV)
  ---------------------------------------------------
  alpha Z        PSCENC =       578.80478617
  Ewald energy   TEWEN  =     -3723.26919290
  -Hartree energ DENC   =    -18171.77118654
  -exchange      EXHF   =         0.00000000
  -V(xc)+E(xc)   XCENC  =       615.90215116
  PAW double counting   =     31328.79658383   -30790.55041833
  entropy T*S    EENTRO =        -0.03807629
  eigenvalues    EBANDS =     -2939.01362930
  atomic energy  EATOM  =     22798.50317220
  Solvation  Ediel_sol  =         0.00000000
  ---------------------------------------------------
  free energy    TOTEN  =      -302.63580999 eV

  energy without entropy =     -302.59773370  energy(sigma->0) =     -302.61677185


--------------------------------------------------------------------------------------------------------




--------------------------------------- Iteration      1(  10)  ---------------------------------------


    POTLOK:  cpu time    0.4719: real time    0.5318
    SETDIJ:  cpu time    2.6837: real time    2.6838
    EDDIAG:  cpu time    0.7085: real time    0.7086
  RMM-DIIS:  cpu time    1.8393: real time    1.8394
    ORTHCH:  cpu time    0.0834: real time    0.0834
       DOS:  cpu time    0.0042: real time    0.0043
    CHARGE:  cpu time    0.9416: real time    0.9416
    MIXING:  cpu time    0.0575: real time    0.0581
    --------------------------------------------
      LOOP:  cpu time    6.7902: real time    6.8509

 eigenvalue-minimisations  :   921
 total energy-change (2. order) : 0.2261453E+01  (-0.8664609E-01)
 number of electron     335.9999944 magnetization      23.9832136
 augmentation part       61.5678431 magnetization      18.5625879

 Broyden mixing:
  rms(total) = 0.15614E+01    rms(broyden)= 0.15613E+01
  rms(prec ) = 0.15985E+01
  weight for this iteration     100.00

 eigenvalues of (default mixing * dielectric matrix)
  average eigenvalue GAMMA=   1.6338
  4.8172  1.2391  1.2391  0.7201  0.1535

 Free energy of the ion-electron system (eV)
  ---------------------------------------------------
  alpha Z        PSCENC =       578.80478617
  Ewald energy   TEWEN  =     -3723.26919290
  -Hartree energ DENC   =    -18177.30511697
  -exchange      EXHF   =         0.00000000
  -V(xc)+E(xc)   XCENC  =       616.55944149
  PAW double counting   =     31613.84454477   -31076.78775260
  entropy T*S    EENTRO =        -0.07467321
  eigenvalues    EBANDS =     -2930.64956552
  atomic energy  EATOM  =     22798.50317220
  Solvation  Ediel_sol  =         0.00000000
  ---------------------------------------------------
  free energy    TOTEN  =      -300.37435656 eV

  energy without entropy =     -300.29968335  energy(sigma->0) =     -300.33701996


--------------------------------------------------------------------------------------------------------




--------------------------------------- Iteration      1(  11)  ---------------------------------------


    POTLOK:  cpu time    0.4748: real time    0.5253
    SETDIJ:  cpu time    2.6836: real time    2.6837
    EDDIAG:  cpu time    0.7110: real time    0.7111
  RMM-DIIS:  cpu time    1.8633: real time    1.8635
    ORTHCH:  cpu time    0.0820: real time    0.0820
       DOS:  cpu time    0.0036: real time    0.0036
    CHARGE:  cpu time    0.9546: real time    0.9546
    MIXING:  cpu time    0.0543: real time    0.0543
    --------------------------------------------
      LOOP:  cpu time    6.8271: real time    6.8780

 eigenvalue-minimisations  :   929
 total energy-change (2. order) :-0.1172274E+01  (-0.1251135E+00)
 number of electron     335.9999944 magnetization      21.7364809
 augmentation part       61.7826319 magnetization      16.6063786

 Broyden mixing:
  rms(total) = 0.17102E+01    rms(broyden)= 0.17101E+01
  rms(prec ) = 0.19173E+01
  weight for this iteration     100.00

 eigenvalues of (default mixing * dielectric matrix)
  average eigenvalue GAMMA=   1.5232
  5.0851  1.4582  1.4582  0.7463  0.2350  0.1563

 Free energy of the ion-electron system (eV)
  ---------------------------------------------------
  alpha Z        PSCENC =       578.80478617
  Ewald energy   TEWEN  =     -3723.26919290
  -Hartree energ DENC   =    -18186.18387758
  -exchange      EXHF   =         0.00000000
  -V(xc)+E(xc)   XCENC  =       617.61219278
  PAW double counting   =     32153.54050403   -31619.00020135
  entropy T*S    EENTRO =        -0.07672283
  eigenvalues    EBANDS =     -2921.47729060
  atomic energy  EATOM  =     22798.50317220
  Solvation  Ediel_sol  =         0.00000000
  ---------------------------------------------------
  free energy    TOTEN  =      -301.54663007 eV

  energy without entropy =     -301.46990724  energy(sigma->0) =     -301.50826866


--------------------------------------------------------------------------------------------------------




--------------------------------------- Iteration      1(  12)  ---------------------------------------


    POTLOK:  cpu time    0.4780: real time    0.5248
    SETDIJ:  cpu time    2.6820: real time    2.6821
    EDDIAG:  cpu time    0.7089: real time    0.7089
  RMM-DIIS:  cpu time    1.8862: real time    1.8864
    ORTHCH:  cpu time    0.0826: real time    0.0826
       DOS:  cpu time    0.0047: real time    0.0047
    CHARGE:  cpu time    1.0859: real time    1.0860
    MIXING:  cpu time    0.0544: real time    0.0544
    --------------------------------------------
      LOOP:  cpu time    6.9827: real time    7.0299

 eigenvalue-minimisations  :   938
 total energy-change (2. order) :-0.4030394E+00  (-0.5399706E-01)
 number of electron     335.9999944 magnetization      17.3262908
 augmentation part       61.8885802 magnetization      12.7953665

 Broyden mixing:
  rms(total) = 0.15445E+01    rms(broyden)= 0.15445E+01
  rms(prec ) = 0.16967E+01
  weight for this iteration     100.00

 eigenvalues of (default mixing * dielectric matrix)
  average eigenvalue GAMMA=   1.6821
  5.6749  2.9305  1.2378  0.7978  0.7978  0.1482  0.1878

 Free energy of the ion-electron system (eV)
  ---------------------------------------------------
  alpha Z        PSCENC =       578.80478617
  Ewald energy   TEWEN  =     -3723.26919290
  -Hartree energ DENC   =    -18189.08664772
  -exchange      EXHF   =         0.00000000
  -V(xc)+E(xc)   XCENC  =       617.93229715
  PAW double counting   =     32417.60398403   -31884.35779562
  entropy T*S    EENTRO =        -0.07645495
  eigenvalues    EBANDS =     -2918.00381787
  atomic energy  EATOM  =     22798.50317220
  Solvation  Ediel_sol  =         0.00000000
  ---------------------------------------------------
  free energy    TOTEN  =      -301.94966952 eV

  energy without entropy =     -301.87321456  energy(sigma->0) =     -301.91144204


--------------------------------------------------------------------------------------------------------




--------------------------------------- Iteration      1(  13)  ---------------------------------------


    POTLOK:  cpu time    0.4781: real time    0.5337
    SETDIJ:  cpu time    2.6818: real time    2.6819
    EDDIAG:  cpu time    0.7079: real time    0.7080
  RMM-DIIS:  cpu time    1.8300: real time    1.8301
    ORTHCH:  cpu time    0.0815: real time    0.0815
       DOS:  cpu time    0.0032: real time    0.0032
    CHARGE:  cpu time    0.9442: real time    0.9442
    MIXING:  cpu time    0.0553: real time    0.0553
    --------------------------------------------
      LOOP:  cpu time    6.7820: real time    6.8380

 eigenvalue-minimisations  :   914
 total energy-change (2. order) :-0.1026706E+01  (-0.3596739E-01)
 number of electron     335.9999944 magnetization      13.4891456
 augmentation part       61.8546588 magnetization      10.2664583

 Broyden mixing:
  rms(total) = 0.17604E+01    rms(broyden)= 0.17604E+01
  rms(prec ) = 0.20433E+01
  weight for this iteration     100.00

 eigenvalues of (default mixing * dielectric matrix)
  average eigenvalue GAMMA=   1.8039
  6.9346  3.9643  1.1564  0.9085  0.9085  0.2336  0.1484  0.1770

 Free energy of the ion-electron system (eV)
  ---------------------------------------------------
  alpha Z        PSCENC =       578.80478617
  Ewald energy   TEWEN  =     -3723.26919290
  -Hartree energ DENC   =    -18182.96530138
  -exchange      EXHF   =         0.00000000
  -V(xc)+E(xc)   XCENC  =       617.00727540
  PAW double counting   =     32403.28389468   -31870.60653280
  entropy T*S    EENTRO =        -0.05842959
  eigenvalues    EBANDS =     -2923.67604686
  atomic energy  EATOM  =     22798.50317220
  Solvation  Ediel_sol  =         0.00000000
  ---------------------------------------------------
  free energy    TOTEN  =      -302.97637507 eV

  energy without entropy =     -302.91794548  energy(sigma->0) =     -302.94716028


--------------------------------------------------------------------------------------------------------




--------------------------------------- Iteration      1(  14)  ---------------------------------------


    POTLOK:  cpu time    0.4748: real time    0.5244
    SETDIJ:  cpu time    2.6821: real time    2.6822
    EDDIAG:  cpu time    0.7091: real time    0.7091
  RMM-DIIS:  cpu time    1.8333: real time    1.8334
    ORTHCH:  cpu time    0.0803: real time    0.0804
       DOS:  cpu time    0.0035: real time    0.0035
    CHARGE:  cpu time    0.9455: real time    0.9456
    MIXING:  cpu time    0.0554: real time    0.0554
    --------------------------------------------
      LOOP:  cpu time    6.7840: real time    6.8339

 eigenvalue-minimisations  :   912
 total energy-change (2. order) : 0.2800201E+00  (-0.3136128E-01)
 number of electron     335.9999944 magnetization      12.8084670
 augmentation part       61.7970486 magnetization      10.6398354

 Broyden mixing:
  rms(total) = 0.12870E+01    rms(broyden)= 0.12869E+01
  rms(prec ) = 0.13191E+01
  weight for this iteration     100.00

 eigenvalues of (default mixing * dielectric matrix)
  average eigenvalue GAMMA=   1.6909
  7.1555  4.1492  1.2074  0.9126  0.9126  0.3330  0.2254  0.1476  0.1745

 Free energy of the ion-electron system (eV)
  ---------------------------------------------------
  alpha Z        PSCENC =       578.80478617
  Ewald energy   TEWEN  =     -3723.26919290
  -Hartree energ DENC   =    -18176.49620672
  -exchange      EXHF   =         0.00000000
  -V(xc)+E(xc)   XCENC  =       616.08445562
  PAW double counting   =     32242.26086031   -31709.54281336
  entropy T*S    EENTRO =        -0.05021390
  eigenvalues    EBANDS =     -2928.99120242
  atomic energy  EATOM  =     22798.50317220
  Solvation  Ediel_sol  =         0.00000000
  ---------------------------------------------------
  free energy    TOTEN  =      -302.69635499 eV

  energy without entropy =     -302.64614109  energy(sigma->0) =     -302.67124804


--------------------------------------------------------------------------------------------------------




--------------------------------------- Iteration      1(  15)  ---------------------------------------


    POTLOK:  cpu time    0.4730: real time    0.5228
    SETDIJ:  cpu time    2.6836: real time    2.6837
    EDDIAG:  cpu time    0.7071: real time    0.7071
  RMM-DIIS:  cpu time    1.8499: real time    1.8500
    ORTHCH:  cpu time    0.0817: real time    0.0817
       DOS:  cpu time    0.0042: real time    0.0042
    CHARGE:  cpu time    0.9445: real time    0.9446
    MIXING:  cpu time    0.0558: real time    0.0558
    --------------------------------------------
      LOOP:  cpu time    6.7998: real time    6.8499

 eigenvalue-minimisations  :   926
 total energy-change (2. order) :-0.3437412E-01  (-0.3776298E-02)
 number of electron     335.9999944 magnetization      12.2920626
 augmentation part       61.7930486 magnetization      10.2595002

 Broyden mixing:
  rms(total) = 0.11912E+01    rms(broyden)= 0.11912E+01
  rms(prec ) = 0.12026E+01
  weight for this iteration     100.00

 eigenvalues of (default mixing * dielectric matrix)
  average eigenvalue GAMMA=   1.5997
  7.1914  4.2774  1.2978  0.9368  0.9368  0.4102  0.4102  0.2139  0.1477  0.1745

 Free energy of the ion-electron system (eV)
  ---------------------------------------------------
  alpha Z        PSCENC =       578.80478617
  Ewald energy   TEWEN  =     -3723.26919290
  -Hartree energ DENC   =    -18176.51680851
  -exchange      EXHF   =         0.00000000
  -V(xc)+E(xc)   XCENC  =       616.02990678
  PAW double counting   =     32136.26091534   -31603.27231181
  entropy T*S    EENTRO =        -0.04788094
  eigenvalues    EBANDS =     -2929.22331544
  atomic energy  EATOM  =     22798.50317220
  Solvation  Ediel_sol  =         0.00000000
  ---------------------------------------------------
  free energy    TOTEN  =      -302.73072911 eV

  energy without entropy =     -302.68284817  energy(sigma->0) =     -302.70678864


--------------------------------------------------------------------------------------------------------




--------------------------------------- Iteration      1(  16)  ---------------------------------------


    POTLOK:  cpu time    0.4699: real time    0.5218
    SETDIJ:  cpu time    2.6846: real time    2.6847
    EDDIAG:  cpu time    0.7136: real time    0.7136
  RMM-DIIS:  cpu time    1.8276: real time    1.8277
    ORTHCH:  cpu time    0.0820: real time    0.0820
       DOS:  cpu time    0.0037: real time    0.0037
    CHARGE:  cpu time    0.9426: real time    0.9426
    MIXING:  cpu time    0.0692: real time    0.0738
    --------------------------------------------
      LOOP:  cpu time    6.7931: real time    6.8499

 eigenvalue-minimisations  :   922
 total energy-change (2. order) :-0.8101958E-01  (-0.1334181E-02)
 number of electron     335.9999944 magnetization       9.5015597
 augmentation part       61.8083108 magnetization       7.5574820

 Broyden mixing:
  rms(total) = 0.11493E+01    rms(broyden)= 0.11493E+01
  rms(prec ) = 0.11666E+01
  weight for this iteration     100.00

 eigenvalues of (default mixing * dielectric matrix)
  average eigenvalue GAMMA=   1.7322
  7.3602  4.3643  2.5630  1.1800  1.1800  0.7948  0.7948  0.2833  0.2122  0.1477
  0.1741

 Free energy of the ion-electron system (eV)
  ---------------------------------------------------
  alpha Z        PSCENC =       578.80478617
  Ewald energy   TEWEN  =     -3723.26919290
  -Hartree energ DENC   =    -18177.48662259
  -exchange      EXHF   =         0.00000000
  -V(xc)+E(xc)   XCENC  =       616.06287615
  PAW double counting   =     32041.89077169   -31508.61344267
  entropy T*S    EENTRO =        -0.04583837
  eigenvalues    EBANDS =     -2928.65825838
  atomic energy  EATOM  =     22798.50317220
  Solvation  Ediel_sol  =         0.00000000
  ---------------------------------------------------
  free energy    TOTEN  =      -302.81174869 eV

  energy without entropy =     -302.76591032  energy(sigma->0) =     -302.78882951


--------------------------------------------------------------------------------------------------------




--------------------------------------- Iteration      1(  17)  ---------------------------------------


    POTLOK:  cpu time    0.4764: real time    0.5239
    SETDIJ:  cpu time    2.6800: real time    2.6802
    EDDIAG:  cpu time    0.7072: real time    0.7072
  RMM-DIIS:  cpu time    1.8340: real time    1.8341
    ORTHCH:  cpu time    0.0828: real time    0.0828
       DOS:  cpu time    0.0043: real time    0.0043
    CHARGE:  cpu time    0.9430: real time    0.9430
    MIXING:  cpu time    0.0607: real time    0.0612
    --------------------------------------------
      LOOP:  cpu time    6.7883: real time    6.8367

 eigenvalue-minimisations  :   913
 total energy-change (2. order) :-0.4367372E+00  (-0.1321905E-01)
 number of electron     335.9999944 magnetization       6.0131644
 augmentation part       61.7935024 magnetization       4.4777974

 Broyden mixing:
  rms(total) = 0.11115E+01    rms(broyden)= 0.11115E+01
  rms(prec ) = 0.12085E+01
  weight for this iteration     100.00

 eigenvalues of (default mixing * dielectric matrix)
  average eigenvalue GAMMA=   1.9377
  8.1439  5.0260  5.0260  1.1260  1.1260  0.8433  0.8433  0.3145  0.2704  0.1477
  0.2107  0.1742

 Free energy of the ion-electron system (eV)
  ---------------------------------------------------
  alpha Z        PSCENC =       578.80478617
  Ewald energy   TEWEN  =     -3723.26919290
  -Hartree energ DENC   =    -18180.93963761
  -exchange      EXHF   =         0.00000000
  -V(xc)+E(xc)   XCENC  =       615.87065065
  PAW double counting   =     31847.28011431   -31313.08938820
  entropy T*S    EENTRO =        -0.03237315
  eigenvalues    EBANDS =     -2926.37661739
  atomic energy  EATOM  =     22798.50317220
  Solvation  Ediel_sol  =         0.00000000
  ---------------------------------------------------
  free energy    TOTEN  =      -303.24848590 eV

  energy without entropy =     -303.21611276  energy(sigma->0) =     -303.23229933


--------------------------------------------------------------------------------------------------------




--------------------------------------- Iteration      1(  18)  ---------------------------------------


    POTLOK:  cpu time    0.4755: real time    0.5245
    SETDIJ:  cpu time    2.6801: real time    2.6802
    EDDIAG:  cpu time    0.7076: real time    0.7076
  RMM-DIIS:  cpu time    1.8193: real time    1.8194
    ORTHCH:  cpu time    0.0818: real time    0.0818
       DOS:  cpu time    0.0044: real time    0.0044
    CHARGE:  cpu time    0.9436: real time    0.9437
    MIXING:  cpu time    0.0608: real time    0.0613
    --------------------------------------------
      LOOP:  cpu time    6.7732: real time    6.8229

 eigenvalue-minimisations  :   912
 total energy-change (2. order) :-0.7194528E-01  (-0.1965819E-01)
 number of electron     335.9999945 magnetization       4.3143170
 augmentation part       61.7504106 magnetization       3.1894962

 Broyden mixing:
  rms(total) = 0.67823E+00    rms(broyden)= 0.67822E+00
  rms(prec ) = 0.71335E+00
  weight for this iteration     100.00

 eigenvalues of (default mixing * dielectric matrix)
  average eigenvalue GAMMA=   1.9885
  8.9665  5.9385  5.1667  1.1524  1.1524  0.8807  0.8807  0.6201  0.2986  0.1477
  0.1741  0.2111  0.2612

 Free energy of the ion-electron system (eV)
  ---------------------------------------------------
  alpha Z        PSCENC =       578.80478617
  Ewald energy   TEWEN  =     -3723.26919290
  -Hartree energ DENC   =    -18184.20987578
  -exchange      EXHF   =         0.00000000
  -V(xc)+E(xc)   XCENC  =       615.54262815
  PAW double counting   =     31731.77850675   -31196.72088008
  entropy T*S    EENTRO =        -0.00894291
  eigenvalues    EBANDS =     -2923.74063279
  atomic energy  EATOM  =     22798.50317220
  Solvation  Ediel_sol  =         0.00000000
  ---------------------------------------------------
  free energy    TOTEN  =      -303.32043118 eV

  energy without entropy =     -303.31148827  energy(sigma->0) =     -303.31595973


--------------------------------------------------------------------------------------------------------




--------------------------------------- Iteration      1(  19)  ---------------------------------------


    POTLOK:  cpu time    0.4749: real time    0.5248
    SETDIJ:  cpu time    2.6804: real time    2.6805
    EDDIAG:  cpu time    0.7083: real time    0.7084
  RMM-DIIS:  cpu time    1.8366: real time    1.8367
    ORTHCH:  cpu time    0.0808: real time    0.0808
       DOS:  cpu time    0.0035: real time    0.0035
    CHARGE:  cpu time    0.9443: real time    0.9443
    MIXING:  cpu time    0.0608: real time    0.0611
    --------------------------------------------
      LOOP:  cpu time    6.7896: real time    6.8401

 eigenvalue-minimisations  :   919
 total energy-change (2. order) :-0.1546104E+00  (-0.1302842E-01)
 number of electron     335.9999945 magnetization       3.2005643
 augmentation part       61.7066175 magnetization       2.1120086

 Broyden mixing:
  rms(total) = 0.68372E+00    rms(broyden)= 0.68370E+00
  rms(prec ) = 0.80214E+00
  weight for this iteration     100.00

 eigenvalues of (default mixing * dielectric matrix)
  average eigenvalue GAMMA=   2.0036
  9.8777  6.3696  5.3567  1.2870  1.1134  0.9503  0.9503  0.7690  0.3253  0.1477
  0.1741  0.2771  0.2101  0.2417

 Free energy of the ion-electron system (eV)
  ---------------------------------------------------
  alpha Z        PSCENC =       578.80478617
  Ewald energy   TEWEN  =     -3723.26919290
  -Hartree energ DENC   =    -18184.15674943
  -exchange      EXHF   =         0.00000000
  -V(xc)+E(xc)   XCENC  =       615.27718577
  PAW double counting   =     31784.72077030   -31249.51421693
  entropy T*S    EENTRO =        -0.00622812
  eigenvalues    EBANDS =     -2923.83456861
  atomic energy  EATOM  =     22798.50317220
  Solvation  Ediel_sol  =         0.00000000
  ---------------------------------------------------
  free energy    TOTEN  =      -303.47504154 eV

  energy without entropy =     -303.46881342  energy(sigma->0) =     -303.47192748


--------------------------------------------------------------------------------------------------------




--------------------------------------- Iteration      1(  20)  ---------------------------------------


    POTLOK:  cpu time    0.4761: real time    0.5260
    SETDIJ:  cpu time    2.6788: real time    2.6789
    EDDIAG:  cpu time    0.7087: real time    0.7087
  RMM-DIIS:  cpu time    1.8341: real time    1.8342
    ORTHCH:  cpu time    0.0830: real time    0.0830
       DOS:  cpu time    0.0039: real time    0.0039
    CHARGE:  cpu time    0.9433: real time    0.9433
    MIXING:  cpu time    0.0619: real time    0.0626
    --------------------------------------------
      LOOP:  cpu time    6.7897: real time    6.8407

 eigenvalue-minimisations  :   914
 total energy-change (2. order) : 0.6398681E-01  (-0.8901168E-02)
 number of electron     335.9999945 magnetization       2.2791003
 augmentation part       61.6856821 magnetization       1.1917097

 Broyden mixing:
  rms(total) = 0.40697E+00    rms(broyden)= 0.40696E+00
  rms(prec ) = 0.45170E+00
  weight for this iteration     100.00

 eigenvalues of (default mixing * dielectric matrix)
  average eigenvalue GAMMA=   2.0647
 11.1295  7.1111  4.8835  1.7810  1.1709  1.0126  1.0126  0.7765  0.7765  0.3062
  0.2681  0.1477  0.1742  0.2140  0.2066

 Free energy of the ion-electron system (eV)
  ---------------------------------------------------
  alpha Z        PSCENC =       578.80478617
  Ewald energy   TEWEN  =     -3723.26919290
  -Hartree energ DENC   =    -18183.03771410
  -exchange      EXHF   =         0.00000000
  -V(xc)+E(xc)   XCENC  =       615.08582856
  PAW double counting   =     31844.42605299   -31309.23864939
  entropy T*S    EENTRO =        -0.00661759
  eigenvalues    EBANDS =     -2924.67872068
  atomic energy  EATOM  =     22798.50317220
  Solvation  Ediel_sol  =         0.00000000
  ---------------------------------------------------
  free energy    TOTEN  =      -303.41105473 eV

  energy without entropy =     -303.40443714  energy(sigma->0) =     -303.40774593


--------------------------------------------------------------------------------------------------------




--------------------------------------- Iteration      1(  21)  ---------------------------------------


    POTLOK:  cpu time    0.4768: real time    0.5264
    SETDIJ:  cpu time    2.6791: real time    2.6792
    EDDIAG:  cpu time    0.7134: real time    0.7134
  RMM-DIIS:  cpu time    1.8436: real time    1.8437
    ORTHCH:  cpu time    0.0831: real time    0.0831
       DOS:  cpu time    0.0043: real time    0.0043
    CHARGE:  cpu time    0.9479: real time    0.9479
    MIXING:  cpu time    0.0620: real time    0.0728
    --------------------------------------------
      LOOP:  cpu time    6.8102: real time    6.8709

 eigenvalue-minimisations  :   913
 total energy-change (2. order) :-0.2537521E-01  (-0.4524046E-02)
 number of electron     335.9999945 magnetization       1.9136602
 augmentation part       61.7030649 magnetization       0.8435877

 Broyden mixing:
  rms(total) = 0.34156E+00    rms(broyden)= 0.34155E+00
  rms(prec ) = 0.39710E+00
  weight for this iteration     100.00

 eigenvalues of (default mixing * dielectric matrix)
  average eigenvalue GAMMA=   2.0354
 11.8433  7.1730  4.6726  2.3409  1.2268  1.0365  1.0365  0.8026  0.8026  0.3276
  0.2985  0.1477  0.2623  0.1742  0.2145  0.2064

 Free energy of the ion-electron system (eV)
  ---------------------------------------------------
  alpha Z        PSCENC =       578.80478617
  Ewald energy   TEWEN  =     -3723.26919290
  -Hartree energ DENC   =    -18180.77003326
  -exchange      EXHF   =         0.00000000
  -V(xc)+E(xc)   XCENC  =       615.04798565
  PAW double counting   =     31768.96571634   -31233.64694281
  entropy T*S    EENTRO =        -0.00966701
  eigenvalues    EBANDS =     -2927.06225432
  atomic energy  EATOM  =     22798.50317220
  Solvation  Ediel_sol  =         0.00000000
  ---------------------------------------------------
  free energy    TOTEN  =      -303.43642993 eV

  energy without entropy =     -303.42676292  energy(sigma->0) =     -303.43159643


--------------------------------------------------------------------------------------------------------




--------------------------------------- Iteration      1(  22)  ---------------------------------------


    POTLOK:  cpu time    0.4754: real time    0.5232
    SETDIJ:  cpu time    2.6799: real time    2.6800
    EDDIAG:  cpu time    0.7083: real time    0.7083
  RMM-DIIS:  cpu time    1.8442: real time    1.8443
    ORTHCH:  cpu time    0.0821: real time    0.0821
       DOS:  cpu time    0.0030: real time    0.0030
    CHARGE:  cpu time    0.9476: real time    0.9477
    MIXING:  cpu time    0.0650: real time    0.0658
    --------------------------------------------
      LOOP:  cpu time    6.8054: real time    6.8543

 eigenvalue-minimisations  :   912
 total energy-change (2. order) : 0.3376064E-01  (-0.2108940E-02)
 number of electron     335.9999945 magnetization       1.8024941
 augmentation part       61.7141336 magnetization       0.7461772

 Broyden mixing:
  rms(total) = 0.16381E+00    rms(broyden)= 0.16381E+00
  rms(prec ) = 0.17288E+00
  weight for this iteration     100.00

 eigenvalues of (default mixing * dielectric matrix)
  average eigenvalue GAMMA=   2.0533
 12.2306  6.8840  4.5257  3.8955  1.1375  1.0595  1.0595  0.8802  0.8802  0.7391
  0.1477  0.3121  0.2925  0.2673  0.1742  0.2138  0.2060

 Free energy of the ion-electron system (eV)
  ---------------------------------------------------
  alpha Z        PSCENC =       578.80478617
  Ewald energy   TEWEN  =     -3723.26919290
  -Hartree energ DENC   =    -18179.10622836
  -exchange      EXHF   =         0.00000000
  -V(xc)+E(xc)   XCENC  =       615.01992749
  PAW double counting   =     31720.42578587   -31185.06694406
  entropy T*S    EENTRO =        -0.01193250
  eigenvalues    EBANDS =     -2928.70204321
  atomic energy  EATOM  =     22798.50317220
  Solvation  Ediel_sol  =         0.00000000
  ---------------------------------------------------
  free energy    TOTEN  =      -303.40266929 eV

  energy without entropy =     -303.39073679  energy(sigma->0) =     -303.39670304


--------------------------------------------------------------------------------------------------------




--------------------------------------- Iteration      1(  23)  ---------------------------------------


    POTLOK:  cpu time    0.4732: real time    0.5254
    SETDIJ:  cpu time    2.6792: real time    2.6793
    EDDIAG:  cpu time    0.7078: real time    0.7078
  RMM-DIIS:  cpu time    1.8510: real time    1.9007
    ORTHCH:  cpu time    0.0823: real time    0.0823
       DOS:  cpu time    0.0046: real time    0.0046
    CHARGE:  cpu time    0.9448: real time    0.9449
    MIXING:  cpu time    0.0613: real time    0.0613
    --------------------------------------------
      LOOP:  cpu time    6.8042: real time    6.9064

 eigenvalue-minimisations  :   924
 total energy-change (2. order) :-0.1700952E-02  (-0.1233236E-02)
 number of electron     335.9999945 magnetization       1.7581633
 augmentation part       61.7086391 magnetization       0.7076927

 Broyden mixing:
  rms(total) = 0.11919E+00    rms(broyden)= 0.11918E+00
  rms(prec ) = 0.12981E+00
  weight for this iteration     100.00

 eigenvalues of (default mixing * dielectric matrix)
  average eigenvalue GAMMA=   2.0372
 12.3769  7.0047  4.8724  4.2540  1.2094  1.0774  1.0774  0.9044  0.9044  0.7294
  0.6452  0.1477  0.3130  0.2933  0.2660  0.1742  0.2138  0.2060

 Free energy of the ion-electron system (eV)
  ---------------------------------------------------
  alpha Z        PSCENC =       578.80478617
  Ewald energy   TEWEN  =     -3723.26919290
  -Hartree energ DENC   =    -18176.44694080
  -exchange      EXHF   =         0.00000000
  -V(xc)+E(xc)   XCENC  =       614.87787426
  PAW double counting   =     31714.78952231   -31179.55489519
  entropy T*S    EENTRO =        -0.01344399
  eigenvalues    EBANDS =     -2931.09525231
  atomic energy  EATOM  =     22798.50317220
  Solvation  Ediel_sol  =         0.00000000
  ---------------------------------------------------
  free energy    TOTEN  =      -303.40437024 eV

  energy without entropy =     -303.39092625  energy(sigma->0) =     -303.39764824


--------------------------------------------------------------------------------------------------------




--------------------------------------- Iteration      1(  24)  ---------------------------------------


    POTLOK:  cpu time    0.4774: real time    0.5268
    SETDIJ:  cpu time    2.6771: real time    2.6772
    EDDIAG:  cpu time    0.7071: real time    0.7071
  RMM-DIIS:  cpu time    1.8625: real time    1.8627
    ORTHCH:  cpu time    0.0810: real time    0.0810
       DOS:  cpu time    0.0095: real time    0.0095
    CHARGE:  cpu time    0.9419: real time    0.9420
    MIXING:  cpu time    0.0619: real time    0.0619
    --------------------------------------------
      LOOP:  cpu time    6.8184: real time    6.8681

 eigenvalue-minimisations  :   920
 total energy-change (2. order) :-0.1865314E-02  (-0.2583144E-03)
 number of electron     335.9999945 magnetization       1.7021894
 augmentation part       61.7099665 magnetization       0.6562665

 Broyden mixing:
  rms(total) = 0.96009E-01    rms(broyden)= 0.96008E-01
  rms(prec ) = 0.10358E+00
  weight for this iteration     100.00

 eigenvalues of (default mixing * dielectric matrix)
  average eigenvalue GAMMA=   2.0070
 12.5782  7.2646  5.0314  4.3919  1.3893  1.0998  1.0998  0.9151  0.9151  0.7591
  0.7591  0.1477  0.3236  0.3094  0.2889  0.2667  0.1742  0.2138  0.2060

 Free energy of the ion-electron system (eV)
  ---------------------------------------------------
  alpha Z        PSCENC =       578.80478617
  Ewald energy   TEWEN  =     -3723.26919290
  -Hartree energ DENC   =    -18176.40142270
  -exchange      EXHF   =         0.00000000
  -V(xc)+E(xc)   XCENC  =       614.87676687
  PAW double counting   =     31731.33967563   -31196.19740779
  entropy T*S    EENTRO =        -0.01441065
  eigenvalues    EBANDS =     -2931.04820239
  atomic energy  EATOM  =     22798.50317220
  Solvation  Ediel_sol  =         0.00000000
  ---------------------------------------------------
  free energy    TOTEN  =      -303.40623555 eV

  energy without entropy =     -303.39182490  energy(sigma->0) =     -303.39903023


--------------------------------------------------------------------------------------------------------




--------------------------------------- Iteration      1(  25)  ---------------------------------------


    POTLOK:  cpu time    0.4763: real time    0.5245
    SETDIJ:  cpu time    2.6784: real time    2.6785
    EDDIAG:  cpu time    0.7084: real time    0.7085
  RMM-DIIS:  cpu time    1.8521: real time    1.8522
    ORTHCH:  cpu time    0.0820: real time    0.0820
       DOS:  cpu time    0.0036: real time    0.0036
    CHARGE:  cpu time    0.9432: real time    0.9432
    MIXING:  cpu time    0.0645: real time    0.0650
    --------------------------------------------
      LOOP:  cpu time    6.8084: real time    6.8573

 eigenvalue-minimisations  :   914
 total energy-change (2. order) :-0.3169492E-03  (-0.1181683E-03)
 number of electron     335.9999945 magnetization       1.6061713
 augmentation part       61.7107571 magnetization       0.5668711

 Broyden mixing:
  rms(total) = 0.68878E-01    rms(broyden)= 0.68878E-01
  rms(prec ) = 0.71049E-01
  weight for this iteration     100.00

 eigenvalues of (default mixing * dielectric matrix)
  average eigenvalue GAMMA=   2.0251
 12.8793  7.9911  4.4966  4.4966  2.2411  1.1026  1.0411  1.0411  0.9951  0.8256
  0.8256  0.6542  0.1477  0.1742  0.3144  0.2663  0.2996  0.2907  0.2138  0.2060

 Free energy of the ion-electron system (eV)
[...]
 -0.000  -0.000  -0.000  -0.000   2.028  -0.000  -0.000   0.307
  0.027   0.011   0.148   0.011  -0.000   0.020   0.001  -0.000
  0.023   0.009   0.011   0.143  -0.000   0.001   0.018  -0.000
 -0.000  -0.000  -0.000  -0.000   0.307  -0.000  -0.000   0.050
 total augmentation occupancy for first ion, spin component:           2
  0.000   0.000  -0.000   0.000  -0.000   0.000   0.000  -0.000
  0.000   0.000   0.000   0.000  -0.000   0.000   0.000  -0.000
 -0.000   0.000  -0.000  -0.000  -0.000   0.000   0.000   0.000
  0.000   0.000  -0.000  -0.000  -0.000   0.000   0.000  -0.000
 -0.000  -0.000  -0.000  -0.000  -0.000  -0.000  -0.000   0.000
  0.000   0.000   0.000   0.000  -0.000   0.000   0.000  -0.000
  0.000   0.000   0.000   0.000  -0.000   0.000   0.000  -0.000
 -0.000  -0.000   0.000  -0.000   0.000  -0.000  -0.000   0.000


------------------------ aborting loop because EDIFF is reached ----------------------------------------


 


 total charge     
 
# of ion       s       p       d       tot
------------------------------------------
    1        1.572   3.355   0.000   4.928
    2        1.572   3.355   0.000   4.928
    3        1.572   3.355   0.000   4.928
    4        1.572   3.355   0.000   4.928
    5        1.572   3.355   0.000   4.928
    6        1.572   3.355   0.000   4.928
    7        1.572   3.355   0.000   4.928
    8        1.572   3.355   0.000   4.928
    9        1.575   3.352   0.000   4.927
   10        1.575   3.352   0.000   4.927
   11        1.575   3.352   0.000   4.927
   12        1.575   3.352   0.000   4.927
   13        1.575   3.352   0.000   4.927
   14        1.575   3.352   0.000   4.927
   15        1.575   3.352   0.000   4.927
   16        1.575   3.352   0.000   4.927
   17        1.572   3.355   0.000   4.928
   18        1.572   3.355   0.000   4.928
   19        1.572   3.355   0.000   4.928
   20        1.572   3.355   0.000   4.928
   21        1.572   3.355   0.000   4.928
   22        1.572   3.355   0.000   4.928
   23        1.572   3.355   0.000   4.928
   24        1.572   3.355   0.000   4.928
   25        1.575   3.352   0.000   4.927
   26        1.575   3.352   0.000   4.927
   27        1.575   3.352   0.000   4.927
   28        1.575   3.352   0.000   4.927
   29        1.575   3.352   0.000   4.927
   30        1.575   3.352   0.000   4.927
   31        1.575   3.352   0.000   4.927
   32        1.575   3.352   0.000   4.927
   33        0.603   0.724   6.950   8.276
   34        0.603   0.724   6.950   8.276
   35        0.603   0.724   6.950   8.276
   36        0.603   0.724   6.950   8.276
   37        0.603   0.724   6.950   8.276
   38        0.603   0.724   6.950   8.276
   39        0.603   0.724   6.950   8.276
   40        0.603   0.724   6.950   8.276
   41        0.603   0.724   6.950   8.276
   42        0.603   0.724   6.950   8.276
   43        0.603   0.724   6.950   8.276
   44        0.603   0.724   6.950   8.276
   45        0.603   0.724   6.950   8.276
   46        0.603   0.724   6.950   8.276
   47        0.603   0.724   6.950   8.276
   48        0.603   0.724   6.950   8.276
--------------------------------------------------
tot         60.003 118.895 111.194 290.092
 


 magnetization (x)
 
# of ion       s       p       d       tot
------------------------------------------
    1       -0.000  -0.000   0.000  -0.000
    2       -0.000  -0.000   0.000  -0.000
    3        0.000   0.000   0.000   0.000
    4        0.000   0.000   0.000   0.000
    5        0.000   0.000   0.000   0.000
    6        0.000   0.000   0.000   0.000
    7       -0.000  -0.000   0.000  -0.000
    8       -0.000  -0.000   0.000  -0.000
    9        0.000   0.000   0.000   0.000
   10        0.000   0.000   0.000   0.000
   11       -0.000  -0.000   0.000  -0.000
   12       -0.000  -0.000   0.000  -0.000
   13        0.000   0.000   0.000   0.000
   14        0.000   0.000   0.000   0.000
   15       -0.000  -0.000   0.000  -0.000
   16       -0.000  -0.000   0.000  -0.000
   17       -0.000  -0.000   0.000  -0.000
   18       -0.000  -0.000   0.000  -0.000
   19        0.000   0.000   0.000   0.000
   20        0.000   0.000   0.000   0.000
   21        0.000   0.000   0.000   0.000
   22        0.000   0.000   0.000   0.000
   23       -0.000  -0.000   0.000  -0.000
   24       -0.000  -0.000   0.000  -0.000
   25        0.000   0.000   0.000   0.000
   26        0.000   0.000   0.000   0.000
   27       -0.000  -0.000   0.000  -0.000
   28       -0.000  -0.000   0.000  -0.000
   29        0.000   0.000   0.000   0.000
   30        0.000   0.000   0.000   0.000
   31       -0.000  -0.000   0.000  -0.000
   32       -0.000  -0.000   0.000  -0.000
   33        0.000   0.000   0.000   0.000
   34        0.000   0.000   0.000   0.000
   35       -0.000  -0.000  -0.000  -0.000
   36       -0.000  -0.000  -0.000  -0.000
   37       -0.000  -0.000  -0.000  -0.000
   38       -0.000  -0.000  -0.000  -0.000
   39        0.000   0.000   0.000   0.000
   40        0.000   0.000   0.000   0.000
   41        0.000   0.000   0.000   0.000
   42        0.000   0.000   0.000   0.000
   43       -0.000  -0.000  -0.000  -0.000
   44       -0.000  -0.000  -0.000  -0.000
   45       -0.000  -0.000  -0.000  -0.000
   46       -0.000  -0.000  -0.000  -0.000
   47        0.000   0.000   0.000   0.000
   48        0.000   0.000   0.000   0.000
--------------------------------------------------
tot         -0.000   0.000   0.000   0.000
 
    CHARGE:  cpu time    0.9364: real time    0.9364
    FORLOC:  cpu time    0.1152: real time    0.1152
    FORNL :  cpu time    1.1114: real time    1.1115
    STRESS:  cpu time    3.4054: real time    3.4056
    FORCOR:  cpu time    0.5783: real time    0.5783
    FORHAR:  cpu time    0.1411: real time    0.1412
    MIXING:  cpu time    0.0615: real time    0.0615
    OFIELD:  cpu time    0.0001: real time    0.0001

  FORCE on cell =-STRESS in cart. coord.  units (eV):
  Direction    XX          YY          ZZ          XY          YZ          ZX
  --------------------------------------------------------------------------------------
  Alpha Z   569.96404   569.96404   569.96404
  Ewald    -304.22185  -304.22185 -2603.32475    -0.03470     0.32855    -0.32855
  Hartree  6914.19119  6914.19119  4825.42244    -0.03154     0.12775    -0.12775
  E(xc)   -1597.05751 -1597.05751 -1597.97469    -0.00015     0.00056    -0.00056
  Local  -11561.40321-11561.40321 -7191.35685     0.06678    -0.41960     0.41960
  n-local  -856.41614  -856.41606  -847.22088     0.00183     0.00464    -0.00466
  augment   835.50429   835.50429   838.78044    -0.00012    -0.00760     0.00761
  Kinetic  5996.97662  5996.97663  6001.44889     0.00052    -0.02288     0.02288
  Fock        0.00000     0.00000     0.00000     0.00000     0.00000     0.00000
  -------------------------------------------------------------------------------------
  Total      -2.46253    -2.46253    -4.26135     0.00263     0.01142    -0.01142
  in kB      -2.41774    -2.41774    -4.18383     0.00258     0.01121    -0.01121
  external pressure =       -3.01 kB  Pullay stress =        0.00 kB


 VOLUME and BASIS-vectors are now :
 -----------------------------------------------------------------------------
  energy-cutoff  :      600.00
  volume of cell :     1631.86
      direct lattice vectors                 reciprocal lattice vectors
    11.602548228 -0.000030777 -0.000006674     0.086187963  0.000000229  0.000000049
    -0.000030777 11.602548228  0.000006674     0.000000229  0.086187963 -0.000000049
    -0.000006828  0.000006828 12.122076792     0.000000047 -0.000000047  0.082494115

  length of vectors
    11.602548228 11.602548228 12.122076792     0.086187963  0.086187963  0.082494115


 FORCES acting on ions
    electron-ion (+dipol)            ewald-force                    non-local-force                 convergence-correction
 -----------------------------------------------------------------------------------------------
   -.961E-02 0.159E+03 0.165E+03   0.112E-01 -.175E+03 -.177E+03   -.245E-02 0.157E+02 0.115E+02   0.165E-02 0.123E-02 0.787E-04
   -.164E-01 -.159E+03 0.165E+03   0.194E-01 0.175E+03 -.177E+03   -.319E-02 -.157E+02 0.115E+02   0.120E-02 -.904E-03 0.567E-03
   -.159E+03 0.113E-01 0.165E+03   0.175E+03 -.125E-01 -.177E+03   -.157E+02 0.248E-02 0.115E+02   0.494E-03 -.225E-02 0.334E-03
   0.159E+03 0.409E-01 0.165E+03   -.175E+03 -.492E-01 -.177E+03   0.157E+02 0.707E-02 0.115E+02   -.861E-03 -.123E-02 0.476E-03
   0.409E-01 0.159E+03 -.165E+03   -.492E-01 -.175E+03 0.177E+03   0.707E-02 0.157E+02 -.115E+02   -.123E-02 -.861E-03 -.476E-03
   0.113E-01 -.159E+03 -.165E+03   -.125E-01 0.175E+03 0.177E+03   0.248E-02 -.157E+02 -.115E+02   -.225E-02 0.494E-03 -.334E-03
   0.159E+03 -.961E-02 -.165E+03   -.175E+03 0.112E-01 0.177E+03   0.157E+02 -.245E-02 -.115E+02   0.123E-02 0.165E-02 -.787E-04
   -.159E+03 -.164E-01 -.165E+03   0.175E+03 0.194E-01 0.177E+03   -.157E+02 -.319E-02 -.115E+02   -.904E-03 0.120E-02 -.567E-03
   -.192E+03 0.464E-02 0.175E-02   0.204E+03 -.603E-02 -.382E-02   -.115E+02 0.183E-02 0.251E-02   -.184E-02 -.651E-03 -.604E-03
   0.192E+03 0.346E-01 -.398E-01   -.204E+03 -.416E-01 0.479E-01   0.115E+02 0.588E-02 -.693E-02   0.157E-02 -.367E-03 0.968E-03
   0.464E-02 -.192E+03 -.175E-02   -.603E-02 0.204E+03 0.382E-02   0.183E-02 -.115E+02 -.251E-02   -.651E-03 -.184E-02 0.604E-03
   0.346E-01 0.192E+03 0.398E-01   -.416E-01 -.204E+03 -.479E-01   0.588E-02 0.115E+02 0.693E-02   -.367E-03 0.157E-02 -.968E-03
   0.192E+03 -.179E-01 -.252E-01   -.204E+03 0.251E-01 0.343E-01   0.115E+02 -.451E-02 -.524E-02   0.175E-02 -.191E-02 -.265E-02
   -.192E+03 0.872E-02 -.122E-01   0.204E+03 -.107E-01 0.144E-01   -.115E+02 0.289E-03 -.384E-03   -.922E-03 0.150E-02 -.140E-02
   -.179E-01 0.192E+03 0.252E-01   0.251E-01 -.204E+03 -.343E-01   -.451E-02 0.115E+02 0.524E-02   -.191E-02 0.175E-02 0.265E-02
   0.872E-02 -.192E+03 0.122E-01   -.107E-01 0.204E+03 -.144E-01   0.289E-03 -.115E+02 0.384E-03   0.150E-02 -.922E-03 0.140E-02
   -.131E-01 0.159E+03 0.165E+03   0.134E-01 -.175E+03 -.177E+03   -.142E-02 0.157E+02 0.115E+02   0.190E-02 0.116E-02 0.463E-03
   -.250E-01 -.159E+03 0.165E+03   0.291E-01 0.175E+03 -.177E+03   -.328E-02 -.157E+02 0.115E+02   0.310E-03 -.196E-02 0.717E-03
   -.159E+03 -.221E-01 0.165E+03   0.175E+03 0.247E-01 -.177E+03   -.157E+02 -.257E-02 0.115E+02   0.517E-03 0.104E-02 -.611E-03
   0.159E+03 0.131E-02 0.165E+03   -.175E+03 -.395E-02 -.177E+03   0.157E+02 0.564E-03 0.115E+02   -.381E-03 0.206E-02 0.376E-03
   0.131E-02 0.159E+03 -.165E+03   -.395E-02 -.175E+03 0.177E+03   0.564E-03 0.157E+02 -.115E+02   0.206E-02 -.381E-03 -.376E-03
   -.221E-01 -.159E+03 -.165E+03   0.247E-01 0.175E+03 0.177E+03   -.257E-02 -.157E+02 -.115E+02   0.104E-02 0.517E-03 0.611E-03
   0.159E+03 -.131E-01 -.165E+03   -.175E+03 0.134E-01 0.177E+03   0.157E+02 -.142E-02 -.115E+02   0.116E-02 0.190E-02 -.463E-03
   -.159E+03 -.250E-01 -.165E+03   0.175E+03 0.291E-01 0.177E+03   -.157E+02 -.328E-02 -.115E+02   -.196E-02 0.310E-03 -.717E-03
   -.192E+03 0.257E-01 0.350E-01   0.204E+03 -.271E-01 -.372E-01   -.115E+02 0.322E-02 0.447E-02   -.201E-02 -.316E-02 -.388E-02
   0.192E+03 0.380E-02 0.216E-02   -.204E+03 -.577E-02 -.128E-02   0.115E+02 0.847E-03 -.440E-05   0.121E-02 0.116E-02 -.879E-03
   0.257E-01 -.192E+03 -.350E-01   -.271E-01 0.204E+03 0.372E-01   0.322E-02 -.115E+02 -.447E-02   -.316E-02 -.201E-02 0.388E-02
   0.380E-02 0.192E+03 -.217E-02   -.577E-02 -.204E+03 0.128E-02   0.847E-03 0.115E+02 0.440E-05   0.116E-02 0.121E-02 0.879E-03
   0.192E+03 -.925E-02 -.142E-01   -.204E+03 0.126E-01 0.177E-01   0.115E+02 -.175E-02 -.164E-02   0.209E-02 -.129E-02 -.133E-02
   -.192E+03 0.160E-01 -.164E-01   0.204E+03 -.211E-01 0.228E-01   -.115E+02 0.208E-02 -.305E-02   -.186E-02 0.248E-02 -.254E-02
   -.925E-02 0.192E+03 0.142E-01   0.126E-01 -.204E+03 -.177E-01   -.175E-02 0.115E+02 0.164E-02   -.129E-02 0.209E-02 0.133E-02
   0.160E-01 -.192E+03 0.164E-01   -.211E-01 0.204E+03 -.228E-01   0.208E-02 -.115E+02 0.305E-02   0.248E-02 -.186E-02 0.254E-02
   0.854E+02 0.854E+02 -.172E-07   -.846E+02 -.846E+02 -.155E-13   -.784E+00 -.784E+00 -.467E-21   0.224E-02 0.224E-02 -.131E-12
   -.854E+02 -.854E+02 0.175E-07   0.846E+02 0.846E+02 0.675E-13   0.784E+00 0.784E+00 -.126E-21   -.817E-03 -.817E-03 -.154E-12
   -.854E+02 0.853E+02 -.778E-02   0.847E+02 -.846E+02 0.903E-02   0.785E+00 -.783E+00 0.339E-03   -.948E-04 -.349E-03 -.642E-03
   0.853E+02 -.854E+02 0.778E-02   -.846E+02 0.847E+02 -.903E-02   -.783E+00 0.785E+00 -.339E-03   -.349E-03 -.948E-04 0.642E-03
   -.854E+02 -.854E+02 0.864E-02   0.846E+02 0.846E+02 -.883E-02   0.784E+00 0.785E+00 -.139E-03   0.102E-02 -.117E-02 0.524E-03
   0.854E+02 0.854E+02 -.964E-02   -.846E+02 -.846E+02 0.908E-02   -.785E+00 -.783E+00 0.227E-03   0.105E-02 -.410E-03 0.720E-03
   0.854E+02 -.853E+02 0.183E-01   -.846E+02 0.846E+02 -.186E-01   -.785E+00 0.782E+00 -.600E-03   0.273E-02 -.514E-03 -.127E-03
   -.853E+02 0.854E+02 -.183E-01   0.846E+02 -.846E+02 0.186E-01   0.782E+00 -.785E+00 0.600E-03   -.514E-03 0.273E-02 0.127E-03
   0.854E+02 0.854E+02 -.180E-07   -.846E+02 -.846E+02 -.368E-13   -.783E+00 -.783E+00 0.196E-21   0.147E-02 0.147E-02 -.695E-13
   -.854E+02 -.854E+02 0.178E-07   0.846E+02 0.846E+02 0.604E-13   0.784E+00 0.784E+00 -.110E-21   -.268E-02 -.268E-02 -.792E-13
   -.854E+02 0.854E+02 -.186E-01   0.846E+02 -.846E+02 0.202E-01   0.784E+00 -.783E+00 0.555E-03   -.978E-03 -.496E-04 -.149E-02
   0.854E+02 -.854E+02 0.186E-01   -.846E+02 0.846E+02 -.202E-01   -.783E+00 0.784E+00 -.555E-03   -.496E-04 -.978E-03 0.149E-02
   -.854E+02 -.854E+02 -.864E-02   0.846E+02 0.846E+02 0.883E-02   0.785E+00 0.784E+00 0.139E-03   -.117E-02 0.102E-02 -.524E-03
   0.854E+02 0.854E+02 0.964E-02   -.846E+02 -.846E+02 -.908E-02   -.783E+00 -.785E+00 -.227E-03   -.410E-03 0.105E-02 -.720E-03
   0.854E+02 -.853E+02 0.978E-03   -.846E+02 0.846E+02 -.115E-02   -.784E+00 0.783E+00 0.454E-04   0.250E-02 -.138E-02 -.310E-03
   -.853E+02 0.854E+02 -.978E-03   0.846E+02 -.846E+02 0.115E-02   0.783E+00 -.784E+00 -.454E-04   -.138E-02 0.250E-02 0.310E-03
 -----------------------------------------------------------------------------------------------
   -.648E-02 -.648E-02 0.737E-09   0.114E-12 0.156E-12 -.781E-13   0.103E-02 0.103E-02 -.355E-14   0.430E-02 0.430E-02 -.328E-11
 
 
 POSITION                                       TOTAL-FORCE (eV/Angst)
 -----------------------------------------------------------------------------------
      5.80126      3.52803      5.70731         0.000865     -0.030531      0.030005
      5.80124      8.07460      5.70737         0.001059      0.030889      0.029721
      8.07459     -0.00000      8.73790         0.030606     -0.000961      0.030057
      3.52802      0.00005      8.73783        -0.030636     -0.002450      0.029790
      0.00004      3.52803      3.38424        -0.002450     -0.030636     -0.029790
     -0.00001      8.07460      3.38418        -0.000961      0.030606     -0.030057
      3.52803      5.80127      6.41477        -0.030531      0.000865     -0.030005
      8.07459      5.80124      6.41471         0.030889      0.001059     -0.029721
      7.99099      8.70187      7.57629        -0.042572     -0.000189     -0.000167
      9.41275      8.70191      1.51519         0.042828     -0.001474      0.002160
      8.70187      7.99099      4.54579        -0.000189     -0.042572      0.000167
      8.70191      9.41275     10.60688        -0.001474      0.042828     -0.002160
      9.41280      2.90060      1.51522         0.042509      0.000777      0.001204
      7.99100      2.90065      7.57625        -0.042860     -0.000215      0.000434
      2.90059      9.41280     10.60685         0.000777      0.042509     -0.001204
      2.90065      7.99101      4.54583        -0.000215     -0.042860     -0.000434
     -0.00006      9.32934     11.76835         0.000767     -0.030640      0.029913
     -0.00006      2.27326     11.76836         0.001196      0.030439      0.029893
      2.27322      5.80124      2.67679         0.030447      0.001134      0.030251
      9.32930      5.80127      2.67677        -0.030908      0.000007      0.029699
      5.80127      9.32930      9.44531         0.000007     -0.030908     -0.029699
      5.80123      2.27323      9.44529         0.001134      0.030447     -0.030251
      9.32933     -0.00005      0.35372        -0.030640      0.000767     -0.029913
      2.27325     -0.00005      0.35371         0.030439      0.001196     -0.029893
      2.18973      2.90067      1.51531        -0.042623     -0.001278     -0.001628
      3.61152      2.90063      7.57628         0.042910      0.000059      0.000006
      2.90067      2.18974     10.60677        -0.001278     -0.042623      0.001628
      2.90062      3.61153      4.54580         0.000059      0.042910     -0.000006
      3.61149      8.70189      7.57629         0.042643      0.000361      0.000504
      2.18976      8.70192      1.51522        -0.042940     -0.000520      0.000767
      8.70188      3.61150      4.54579         0.000361      0.042643     -0.000504
      8.70192      2.18977     10.60686        -0.000520     -0.042940     -0.000767
      3.98627      3.98628      6.06104        -0.048820     -0.048820      0.000000
      7.61627      7.61628      6.06104         0.048227      0.048227      0.000000
      7.61628      9.78745      9.09148         0.049623     -0.047936      0.000950
      9.78745      7.61629      3.03060        -0.047936      0.049623     -0.000950
      7.61633      1.81500      9.09152         0.048286      0.049702      0.000197
      3.98623      9.78746      9.09154        -0.048996     -0.047204      0.000382
      3.98628      7.61635      6.06110        -0.049709      0.046773     -0.001117
      7.61634      3.98629      6.06098         0.046773     -0.049709      0.001117
      9.78744      9.78744     -0.00000        -0.048111     -0.048111      0.000000
      1.81505      1.81505     -0.00000         0.048332      0.048332      0.000000
      1.81499      3.98620      3.03050         0.049493     -0.047739      0.000639
      3.98620      1.81500      9.09157        -0.047739      0.049493     -0.000639
      1.81500      7.61633      3.03056         0.049702      0.048286     -0.000197
      9.78745      3.98624      3.03054        -0.047204     -0.048996     -0.000382
      9.78748      1.81505      0.00005        -0.048426      0.047806     -0.000436
      1.81505      9.78748     -0.00005         0.047806     -0.048426      0.000436
 -----------------------------------------------------------------------------------
    total drift:                               -0.001146     -0.001146      0.000000


--------------------------------------------------------------------------------------------------------



  FREE ENERGIE OF THE ION-ELECTRON SYSTEM (eV)
  ---------------------------------------------------
  free  energy   TOTEN  =      -305.67990624 eV

  energy  without entropy=     -305.67990624  energy(sigma->0) =     -305.67990624
 
 d Force =-0.1540864E-02[-0.181E-02,-0.127E-02]  d Energy =-0.1063484E-01 0.909E-02
 d Force =-0.1602502E+02[-0.160E+02,-0.160E+02]  d Ewald  =-0.2516164E+02 0.914E+01


--------------------------------------------------------------------------------------------------------


    POTLOK:  cpu time    3.1449: real time    3.1451


--------------------------------------------------------------------------------------------------------


 stress matrix after NEB project (eV)
     -2.46253      0.00263     -0.01142
      0.00263     -2.46253      0.01142
     -0.01142      0.01142     -4.26135
  FORCES: max atom, RMS     0.069296    0.052788
  FORCE total and by dimension    0.365728    0.049709
  Stress total and by dimension    5.503432    4.261349
