 vasp.5.4.4.18Apr17-6-g9f103f2a35 (build Aug 21 2019 12:36:18) complex          
  
 executed on IFC18.0.1.163_CrayMP date 2019.08.25  15:56:15
 running on  330 total cores
 distrk:  each k-point on   66 cores,    5 groups
 distr:  one band on NCORES_PER_BAND=  11 cores,    6 groups


--------------------------------------------------------------------------------------------------------


 INCAR:
 POTCAR:    PAW_PBE O 08Apr2002                   
 POTCAR:    PAW_PBE Ir 06Sep2000                  

 ----------------------------------------------------------------------------- 
|                                                                             |
|           W    W    AA    RRRRR   N    N  II  N    N   GGGG   !!!           |
|           W    W   A  A   R    R  NN   N  II  NN   N  G    G  !!!           |
|           W    W  A    A  R    R  N N  N  II  N N  N  G       !!!           |
|           W WW W  AAAAAA  RRRRR   N  N N  II  N  N N  G  GGG   !            |
|           WW  WW  A    A  R   R   N   NN  II  N   NN  G    G                |
|           W    W  A    A  R    R  N    N  II  N    N   GGGG   !!!           |
|                                                                             |
|      You have enabled k-point parallelism (KPAR>1).                         |
|      This developmental code was originally  written by Paul Kent at ORNL,  |
|      and carefully double checked in Vienna.                                |
|      GW as well as linear response parallelism added by Martijn Marsman     |
|      and Georg Kresse.                                                      |
|      Carefully verify results versus KPAR=1.                                |
|      Report problems to Paul Kent and Vienna.                               |
|                                                                             |
 ----------------------------------------------------------------------------- 

 POTCAR:    PAW_PBE O 08Apr2002                   
   VRHFIN =O: s2p4                                                              
   LEXCH  = PE                                                                  
   EATOM  =   432.3788 eV,   31.7789 Ry                                         
                                                                                
   TITEL  = PAW_PBE O 08Apr2002                                                 
   LULTRA =        F    use ultrasoft PP ?                                      
   IUNSCR =        1    unscreen: 0-lin 1-nonlin 2-no                           
   RPACOR =    1.200    partial core radius                                     
   POMASS =   16.000; ZVAL   =    6.000    mass and valenz                      
   RCORE  =    1.520    outmost cutoff radius                                   
   RWIGS  =    1.550; RWIGS  =    0.820    wigner-seitz radius (au A)           
   ENMAX  =  400.000; ENMIN  =  300.000 eV                                      
   ICORE  =        2    local potential                                         
   LCOR   =        T    correct aug charges                                     
   LPAW   =        T    paw PP                                                  
   EAUG   =  605.392                                                            
   DEXC   =    0.000                                                            
   RMAX   =    1.553    core radius for proj-oper                               
   RAUG   =    1.300    factor for augmentation sphere                          
   RDEP   =    1.550    radius for radial grids                                 
   RDEPT  =    1.329    core radius for aug-charge                              
                                                                                
   Atomic configuration                                                         
    4 entries                                                                   
     n  l   j            E        occ.                                          
     1  0  0.50      -514.6923   2.0000                                         
     2  0  0.50       -23.9615   2.0000                                         
     2  1  0.50        -9.0305   4.0000                                         
     3  2  1.50        -9.5241   0.0000                                         
   Description                                                                  
     l       E           TYP  RCUT    TYP  RCUT                                 
     0    -23.9615318     23  1.200                                             
     0     -9.5240782     23  1.200                                             
     1     -9.0304911     23  1.520                                             
     1      8.1634956     23  1.520                                             
     2     -9.5240782      7  1.500                                             
  local pseudopotential read in
  partial core-charges read in
  partial kinetic energy density read in
  kinetic energy density of atom read in
  atomic valenz-charges read in
  non local Contribution for L=           0  read in
    real space projection operators read in
  non local Contribution for L=           0  read in
    real space projection operators read in
  non local Contribution for L=           1  read in
    real space projection operators read in
  non local Contribution for L=           1  read in
    real space projection operators read in
    PAW grid and wavefunctions read in
 
   number of l-projection  operators is LMAX  =           4
   number of lm-projection operators is LMMAX =           8
 
 POTCAR:    PAW_PBE Ir 06Sep2000                  
   VRHFIN =Ir: s1d8                                                             
   LEXCH  = PE                                                                  
   EATOM  =   560.1833 eV,   41.1723 Ry                                         
                                                                                
   TITEL  = PAW_PBE Ir 06Sep2000                                                
   LULTRA =        F    use ultrasoft PP ?                                      
   IUNSCR =        1    unscreen: 0-lin 1-nonlin 2-no                           
   RPACOR =    2.250    partial core radius                                     
   POMASS =  192.220; ZVAL   =    9.000    mass and valenz                      
   RCORE  =    2.600    outmost cutoff radius                                   
   RWIGS  =    2.690; RWIGS  =    1.423    wigner-seitz radius (au A)           
   ENMAX  =  210.864; ENMIN  =  158.148 eV                                      
   RCLOC  =    1.857    cutoff for local pot                                    
   LCOR   =        T    correct aug charges                                     
   LPAW   =        T    paw PP                                                  
   EAUG   =  318.962                                                            
   DEXC   =    0.000                                                            
   RMAX   =    2.667    core radius for proj-oper                               
   RAUG   =    1.300    factor for augmentation sphere                          
   RDEP   =    2.748    radius for radial grids                                 
   RDEPT  =    2.300    core radius for aug-charge                              
                                                                                
   Atomic configuration                                                         
   16 entries                                                                   
     n  l   j            E        occ.                                          
     1  0  0.50    -76100.0449   2.0000                                         
     2  0  0.50    -13308.1683   2.0000                                         
     2  1  1.50    -11558.0021   6.0000                                         
     3  0  0.50     -3110.7274   2.0000                                         
     3  1  1.50     -2599.2109   6.0000                                         
     3  2  2.50     -2037.1515  10.0000                                         
     4  0  0.50      -661.6001   2.0000                                         
     4  1  1.50      -493.8981   6.0000                                         
     4  2  2.50      -288.1909  10.0000                                         
     4  3  3.50       -59.5718  14.0000                                         
     5  0  0.50       -95.3879   2.0000                                         
     5  1  1.50       -52.2747   6.0000                                         
     5  2  2.50        -5.4180   8.0000                                         
     6  0  0.50        -5.5479   1.0000                                         
     6  1  1.50        -6.8029   0.0000                                         
     5  3  2.50        -1.3606   0.0000                                         
   Description                                                                  
     l       E           TYP  RCUT    TYP  RCUT                                 
     2     -5.4179967     23  2.600                                             
     2     -6.7785793     23  2.600                                             
     0     -5.5478636     23  2.600                                             
     0      2.2542272     23  2.600                                             
     1     -2.7211652     23  2.600                                             
     1     20.4087390     23  2.600                                             
  local pseudopotential read in
  partial core-charges read in
  partial kinetic energy density read in
  atomic valenz-charges read in
  non local Contribution for L=           2  read in
    real space projection operators read in
  non local Contribution for L=           2  read in
    real space projection operators read in
  non local Contribution for L=           0  read in
    real space projection operators read in
  non local Contribution for L=           0  read in
    real space projection operators read in
  non local Contribution for L=           1  read in
    real space projection operators read in
  non local Contribution for L=           1  read in
    real space projection operators read in
    PAW grid and wavefunctions read in
 
   number of l-projection  operators is LMAX  =           6
   number of lm-projection operators is LMMAX =          18
 
 Optimization of the real space projectors (new method)

 maximal supplied QI-value         = 24.76
 optimisation between [QCUT,QGAM] = [ 12.38, 31.19] = [ 42.90,272.45] Ry 
 Optimized for a Real-space Cutoff    0.88 Angstroem

   l    n(q)    QCUT    max X(q) W(low)/X(q) W(high)/X(q)  e(spline) 
   0      8    12.378    20.381    0.23E-03    0.15E-03    0.14E-06
   0      8    12.378    15.268    0.25E-03    0.16E-03    0.15E-06
   1      8    12.378     5.964    0.24E-03    0.11E-03    0.16E-06
   1      8    12.378     5.382    0.21E-03    0.84E-04    0.13E-06
 Optimization of the real space projectors (new method)

 maximal supplied QI-value         = 14.36
 optimisation between [QCUT,QGAM] = [ 12.49, 31.31] = [ 43.72,274.50] Ry 
 Optimized for a Real-space Cutoff    1.40 Angstroem

   l    n(q)    QCUT    max X(q) W(low)/X(q) W(high)/X(q)  e(spline) 
   2     12    12.495   134.116    0.29E-03    0.64E-03    0.30E-04
   2     12    12.495   130.192    0.29E-03    0.64E-03    0.30E-04
   0     13    12.495    60.310    0.11E-03    0.19E-03    0.31E-04
   0     13    12.495    39.218    0.10E-03    0.18E-03    0.29E-04
   1     13    12.495    18.439    0.29E-03    0.21E-04    0.43E-04
   1     13    12.495    12.760    0.22E-03    0.16E-04    0.33E-04
  PAW_PBE O 08Apr2002                   :
 energy of atom  1       EATOM= -432.3788
 kinetic energy error for atom=    0.0168 (will be added to EATOM!!)
  PAW_PBE Ir 06Sep2000                  :
 energy of atom  2       EATOM= -560.1833
 kinetic energy error for atom=    0.0008 (will be added to EATOM!!)
 
 
 POSCAR:  O Ir                                   
  positions in cartesian coordinates
  No initial velocities read in
 exchange correlation table for  LEXCH =        8
   RHO(1)=    0.500       N(1)  =     2000
   RHO(2)=  100.500       N(2)  =     4000

 VTST: version 3.2, (02/03/18)

 CHAIN: initializing optimizer
 
 OPT: Using VASP Conjugate-Gradient optimizer
 CHAIN: Read ICHAIN            0
 
 POSCAR:  O Ir                                   
  positions in cartesian coordinates
  No initial velocities read in
 


--------------------------------------------------------------------------------------------------------


 ion  position               nearest neighbor table
   1  0.615  0.062  0.524-  33 1.99  40 2.03  34 2.06
   2  0.415  0.863  0.478-  39 1.90  34 1.94
   3  0.941  0.884  0.736-  37 1.99  35 2.03  38 2.05
   4  0.194  0.044  0.772-  44 1.90  38 1.93
   5  0.086  0.136  0.273-  43 1.90  46 1.94
   6  0.886  0.937  0.226-  45 1.99  36 2.02  46 2.06
   7  0.059  0.616  0.513-  33 1.99  39 2.03  34 2.05
   8  0.805  0.456  0.478-  40 1.90  34 1.93
   9  0.726  0.734  0.629-  35 1.84  34 1.90
  10  0.731  0.756  0.121-  41 1.86  36 1.90
  11  0.748  0.815  0.375-  36 1.89  34 1.89
  12  0.798  0.779  0.880-  35 1.83  41 1.88
  13  0.775  0.266  0.121-  47 1.84  46 1.90
  14  0.768  0.245  0.628-  37 1.86  40 1.90
  15  0.251  0.686  0.875-  48 1.89  38 1.89
  16  0.202  0.721  0.370-  39 1.83  45 1.88
  17  0.114  0.563  0.024-  41 1.99  48 2.02  42 2.06
  18  0.914  0.364  0.977-  47 1.90  42 1.94
  19  0.442  0.383  0.236-  45 1.99  43 2.03  46 2.05
  20  0.695  0.543  0.272-  36 1.90  46 1.93
  21  0.585  0.637  0.772-  35 1.90  38 1.94
  22  0.385  0.438  0.726-  37 1.99  44 2.03  38 2.06
  23  0.558  0.117  0.014-  41 1.99  47 2.03  42 2.05
  24  0.305  0.957  0.978-  48 1.90  42 1.93
  25  0.225  0.234  0.129-  43 1.84  42 1.90
  26  0.231  0.255  0.622-  33 1.86  44 1.90
  27  0.248  0.315  0.875-  44 1.89  42 1.89
  28  0.299  0.279  0.380-  43 1.83  33 1.88
  29  0.274  0.766  0.621-  39 1.84  38 1.90
  30  0.269  0.744  0.129-  45 1.86  48 1.90
  31  0.752  0.185  0.375-  40 1.89  46 1.89
  32  0.701  0.222  0.870-  47 1.83  37 1.88
  33  0.308  0.313  0.509-  26 1.86  28 1.88   7 1.99   1 1.99  40 2.68  39 2.92
  34  0.727  0.746  0.498-  11 1.89   9 1.90   8 1.93   2 1.94   7 2.05   1 2.06
  35  0.745  0.770  0.755-  12 1.83   9 1.84  21 1.90   3 2.03  37 2.92  44 3.15
  36  0.804  0.721  0.250-  11 1.89  10 1.90  20 1.90   6 2.02  45 2.68  43 3.15
  37  0.692  0.187  0.741-  14 1.86  32 1.88   3 1.99  22 1.99  44 2.68  35 2.92
  38  0.273  0.754  0.752-  15 1.89  29 1.90   4 1.93  21 1.94   3 2.05  22 2.06
  39  0.255  0.730  0.495-  16 1.83  29 1.84   2 1.90   7 2.03  33 2.92  40 3.15
  40  0.696  0.279  0.499-  31 1.89   8 1.90  14 1.90   1 2.03  33 2.68  39 3.15
  41  0.807  0.814  0.009-  10 1.86  12 1.88  23 1.99  17 1.99  48 2.68  47 2.92
  42  0.226  0.247  0.998-  27 1.89  25 1.90  24 1.93  18 1.94  23 2.05  17 2.06
  43  0.246  0.269  0.255-  28 1.83  25 1.84   5 1.90  19 2.03  45 2.92  36 3.15
  44  0.304  0.221  0.751-  27 1.89   4 1.90  26 1.90  22 2.03  37 2.68  35 3.15
  45  0.193  0.686  0.241-  30 1.86  16 1.88  19 1.99   6 1.99  36 2.68  43 2.92
  46  0.774  0.253  0.252-  31 1.89  13 1.90  20 1.93   5 1.94  19 2.05   6 2.06
  47  0.754  0.231  0.995-  32 1.83  13 1.84  18 1.90  23 2.03  41 2.92  48 3.15
  48  0.196  0.779  1.000-  15 1.89  30 1.90  24 1.90  17 2.02  41 2.68  47 3.15
 
  LATTYP: Found a triclinic cell.
 ALAT       =     7.2072900000
 B/A-ratio  =     1.6889305925
 C/A-ratio  =     2.8381008950
 COS(alpha) =     0.0003175259
 COS(beta)  =     0.3661130561
 COS(gamma) =     0.8571099441
  
  Lattice vectors:
  
 A1 = (  -7.2072900000,   0.0000000000,   0.0000000000)
 A2 = ( -10.4332672796,   6.2705207640,   0.0000000000)
 A3 = (  -7.4888484935, -12.4477854087, -14.4006067369)


Analysis of symmetry for initial positions (statically):
=====================================================================
 Subroutine PRICEL returns:
 Original cell was already a primitive cell.
 

 Routine SETGRP: Setting up the symmetry group for a 
 triclinic supercell.


 Subroutine GETGRP returns: Found  1 space group operations
 (whereof  1 operations were pure point group operations)
 out of a pool of  2 trial point group operations.


The static configuration has the point symmetry C_1 .


Analysis of symmetry for dynamics (positions and initial velocities):
=====================================================================
 Subroutine PRICEL returns:
 Original cell was already a primitive cell.
 

 Routine SETGRP: Setting up the symmetry group for a 
 triclinic supercell.


 Subroutine GETGRP returns: Found  1 space group operations
 (whereof  1 operations were pure point group operations)
 out of a pool of  2 trial point group operations.


The dynamic configuration has the point symmetry C_1 .


Analysis of structural, dynamic, and magnetic symmetry:
=====================================================================
 Subroutine PRICEL returns:
 Original cell was already a primitive cell.
 

 Routine SETGRP: Setting up the symmetry group for a 
 triclinic supercell.


 Subroutine GETGRP returns: Found  1 space group operations
 (whereof  1 operations were pure point group operations)
 out of a pool of  2 trial point group operations.


The magnetic configuration has the point symmetry C_1 .


 Subroutine INISYM returns: Found  1 space group operations
 (whereof  1 operations are pure point group operations),
 and found     1 'primitive' translations

 
 
 KPOINTS: KPOINTS created by Atomic Simulation Env

Automatic generation of k-mesh.
Space group operators:
 irot       det(A)        alpha          n_x          n_y          n_z        tau_x        tau_y        tau_z
    1     1.000000     0.000001     1.000000     0.000000     0.000000     0.000000     0.000000     0.000000
 
 Subroutine IBZKPT returns following result:
 ===========================================
 
 Found      4 irreducible k-points:
 
 Following reciprocal coordinates:
            Coordinates               Weight
  0.000000  0.000000  0.000000      1.000000
  0.500000 -0.000000  0.000000      1.000000
  0.000000  0.500000  0.000000      1.000000
  0.500000  0.500000  0.000000      1.000000
 
 Following cartesian coordinates:
            Coordinates               Weight
  0.000000  0.000000  0.000000      1.000000
  0.069374 -0.044047  0.001997      1.000000
  0.000000  0.079738  0.000516      1.000000
  0.069374  0.035691  0.002514      1.000000
 


--------------------------------------------------------------------------------------------------------




 Dimension of arrays:
   k-points           NKPTS =      4   k-points in BZ     NKDIM =      4   number of bands    NBANDS=    228
   number of dos      NEDOS =    301   number of ions     NIONS =     48
   non local maximal  LDIM  =      6   non local SUM 2l+1 LMDIM =     18
   total plane-waves  NPLWV = 432000
   max r-space proj   IRMAX =   7760   max aug-charges    IRDMAX=  14420
   dimension x,y,z NGX =    60 NGY =   60 NGZ =  120
   dimension x,y,z NGXF=    80 NGYF=   80 NGZF=  160
   support grid    NGXF=    80 NGYF=   80 NGZF=  160
   ions per type =              32  16
   NGX,Y,Z   is equivalent  to a cutoff of  13.84, 13.43, 13.85 a.u.
   NGXF,Y,Z  is equivalent  to a cutoff of  18.45, 17.91, 18.46 a.u.

 SYSTEM =  unknown system                          
 POSCAR =   O Ir                                   

 Startparameter for this run:
   NWRITE =      2    write-flag & timer
   PREC   = high      normal or accurate (medium, high low for compatibility)
   ISTART =      0    job   : 0-new  1-cont  2-samecut
   ICHARG =      2    charge: 1-file 2-atom 10-const
   ISPIN  =      2    spin polarized calculation?
   LNONCOLLINEAR =      F non collinear calculations
   LSORBIT =      F    spin-orbit coupling
   INIWAV =      1    electr: 0-lowe 1-rand  2-diag
   LASPH  =      T    aspherical Exc in radial PAW
   METAGGA=      F    non-selfconsistent MetaGGA calc.

 Electronic Relaxation 1
   ENCUT  =  600.0 eV  44.10 Ry    6.64 a.u.  14.39 14.83 28.78*2*pi/ulx,y,z
   ENINI  =  600.0     initial cutoff
   ENAUG  =  605.4 eV  augmentation charge cutoff
   NELM   =    220;   NELMIN=  2; NELMDL= -5     # of ELM steps 
   EDIFF  = 0.1E-05   stopping-criterion for ELM
   LREAL  =      T    real-space projection
   NLSPLINE    = F    spline interpolate recip. space projectors
   LCOMPAT=      F    compatible to vasp.4.4
   GGA_COMPAT  = T    GGA compatible to vasp.4.4-vasp.4.6
   LMAXPAW     = -100 max onsite density
   LMAXMIX     =    6 max onsite mixed and CHGCAR
   VOSKOWN=      0    Vosko Wilk Nusair interpolation
   ROPT   =   -0.00040  -0.00040
 Ionic relaxation
   EDIFFG = 0.1E-02   stopping-criterion for IOM
   NSW    =    150    number of steps for IOM
   NBLOCK =      1;   KBLOCK =    150    inner block; outer block 
   IBRION =      2    ionic relax: 0-MD 1-quasi-New 2-CG
   NFREE  =      1    steps in history (QN), initial steepest desc. (CG)
   ISIF   =      2    stress and relaxation
   IWAVPR =     11    prediction:  0-non 1-charg 2-wave 3-comb
   ISYM   =      2    0-nonsym 1-usesym 2-fastsym
   LCORR  =      T    Harris-Foulkes like correction to forces

   POTIM  = 0.0300    time-step for ionic-motion
   TEIN   =    0.0    initial temperature
   TEBEG  =    0.0;   TEEND  =   0.0 temperature during run
   SMASS  =  -3.00    Nose mass-parameter (am)
   estimated Nose-frequenzy (Omega)   =  0.10E-29 period in steps =****** mass=  -0.119E-26a.u.
   SCALEE = 1.0000    scale energy and forces
   NPACO  =    256;   APACO  = 16.0  distance and # of slots for P.C.
   PSTRESS=    0.0 pullay stress

  Mass of Ions in am
   POMASS =  16.00192.22
  Ionic Valenz
   ZVAL   =   6.00  9.00
  Atomic Wigner-Seitz radii
   RWIGS  =  -1.00 -1.00
  virtual crystal weights 
   VCA    =   1.00  1.00
   NELECT =     336.0000    total number of electrons
   NUPDOWN=      -1.0000    fix difference up-down

 DOS related values:
   EMIN   =  10.00;   EMAX   =-10.00  energy-range for DOS
   EFERMI =   0.00
   ISMEAR =     0;   SIGMA  =   0.05  broadening in eV -4-tet -1-fermi 0-gaus

 Electronic relaxation 2 (details)
   IALGO  =     68    algorithm
   LDIAG  =      T    sub-space diagonalisation (order eigenvalues)
   LSUBROT=      F    optimize rotation matrix (better conditioning)
   TURBO    =      0    0=normal 1=particle mesh
   IRESTART =      0    0=no restart 2=restart with 2 vectors
   NREBOOT  =      0    no. of reboots
   NMIN     =      0    reboot dimension
   EREF     =   0.00    reference energy to select bands
   IMIX   =      4    mixing-type and parameters
     AMIX     =   0.20;   BMIX     =  0.00
     AMIX_MAG =   0.10;   BMIX_MAG =  0.00
     AMIN     =   0.10
     WC   =   100.;   INIMIX=   0;  MIXPRE=   1;  MAXMIX= -45

 Intra band minimization:
   WEIMIN = 0.0010     energy-eigenvalue tresh-hold
   EBREAK =  0.11E-08  absolut break condition
   DEPER  =   0.30     relativ break condition  

   TIME   =   0.40     timestep for ELM

  volume/ion in A,a.u.               =      13.56        91.50
  Fermi-wavevector in a.u.,A,eV,Ry     =   1.313316  2.481807 23.467302  1.724798
  Thomas-Fermi vector in A             =   2.443647
 
 Write flags
   LWAVE        =      T    write WAVECAR
   LDOWNSAMPLE  =      F    k-point downsampling of WAVECAR
   LCHARG       =      T    write CHGCAR
   LVTOT        =      F    write LOCPOT, total local potential
   LVHAR        =      F    write LOCPOT, Hartree potential only
   LELF         =      F    write electronic localiz. function (ELF)
   LORBIT       =     11    0 simple, 1 ext, 2 COOP (PROOUT), +10 PAW based schemes


 Dipole corrections
   LMONO  =      F    monopole corrections only (constant potential shift)
   LDIPOL =      F    correct potential (dipole corrections)
   IDIPOL =      0    1-x, 2-y, 3-z, 4-all directions 
   EPSILON=  1.0000000 bulk dielectric constant

 Exchange correlation treatment:
   GGA     =    PE    GGA type
   LEXCH   =     8    internal setting for exchange type
   VOSKOWN=      0    Vosko Wilk Nusair interpolation
   LHFCALC =     F    Hartree Fock is set to
   LHFONE  =     F    Hartree Fock one center treatment
   AEXX    =    0.0000 exact exchange contribution

 Linear response parameters
   LEPSILON=     F    determine dielectric tensor
   LRPA    =     F    only Hartree local field effects (RPA)
   LNABLA  =     F    use nabla operator in PAW spheres
   LVEL    =     F    velocity operator in full k-point grid
   LINTERFAST=   F  fast interpolation
   KINTER  =     0    interpolate to denser k-point grid
   CSHIFT  =0.1000    complex shift for real part using Kramers Kronig
   OMEGAMAX=  -1.0    maximum frequency
   DEG_THRESHOLD= 0.2000000E-02 threshold for treating states as degnerate
   RTIME   =   -0.100 relaxation time in fs
  (WPLASMAI=    0.000 imaginary part of plasma frequency in eV, 0.658/RTIME)
   DFIELD  = 0.0000000 0.0000000 0.0000000 field for delta impulse in time
 
 Orbital magnetization related:
   ORBITALMAG=     F  switch on orbital magnetization
   LCHIMAG   =     F  perturbation theory with respect to B field
   DQ        =  0.001000  dq finite difference perturbation B field
   LLRAUG    =     F  two centre corrections for induced B field



--------------------------------------------------------------------------------------------------------


 conjugate gradient relaxation of ions
 charge density and potential will be updated during run
 spin polarized calculation
 RMM-DIIS sequential band-by-band and
  variant of blocked Davidson during initial phase
 perform sub-space diagonalisation
    before iterative eigenvector-optimisation
 modified Broyden-mixing scheme, WC =      100.0
 initial mixing is a simple linear mixing with ALPHA =  0.2000
 Hartree-type preconditioning will be used
 using additional bands           60
 real space projection scheme for non local part
 use partial core corrections
 calculate Harris-corrections to forces 
   (improved forces if not selfconsistent)
 use gradient corrections 
 use of overlap-Matrix (Vanderbilt PP)
 Gauss-broadening in eV      SIGMA  =   0.05


--------------------------------------------------------------------------------------------------------


  energy-cutoff  :      600.00
  volume of cell :      650.81
      direct lattice vectors                 reciprocal lattice vectors
     7.207290000  0.000000000  0.000000000     0.138748406 -0.088094883  0.003994305
     3.981312720  6.270520764  0.000000000     0.000000000  0.159476388  0.001032745
    -0.473776947 -0.093256119 14.400606737     0.000000000  0.000000000  0.069441519

  length of vectors
     7.207290000  7.427670000 14.408700000     0.164401287  0.159479732  0.069441519


 
 k-points in units of 2pi/SCALE and weight: KPOINTS created by Atomic Simulation Env
   0.00000000  0.00000000  0.00000000       0.250
   0.06937420 -0.04404744  0.00199715       0.250
   0.00000000  0.07973819  0.00051637       0.250
   0.06937420  0.03569075  0.00251352       0.250
 
 k-points in reciprocal lattice and weights: KPOINTS created by Atomic Simulation Env
   0.00000000  0.00000000  0.00000000       0.250
   0.50000000 -0.00000000  0.00000000       0.250
   0.00000000  0.50000000  0.00000000       0.250
   0.50000000  0.50000000  0.00000000       0.250
 
 position of ions in fractional coordinates (direct lattice) 
   0.61481000  0.06241000  0.52378000
   0.41469000  0.86340000  0.47758000
   0.94101000  0.88426000  0.73649000
   0.19446000  0.04362000  0.77206000
   0.08585000  0.13619000  0.27252000
   0.88603000  0.93684000  0.22629000
   0.05894000  0.61578000  0.51349000
   0.80546000  0.45643000  0.47791000
   0.72581000  0.73388000  0.62917000
   0.73106000  0.75572000  0.12150000
   0.74844000  0.81462000  0.37500000
   0.79791000  0.77931000  0.88012000
   0.77472000  0.26559000  0.12078000
   0.76845000  0.24482000  0.62848000
   0.25147000  0.68551000  0.87501000
   0.20205000  0.72073000  0.36988000
   0.11402000  0.56313000  0.02370000
   0.91421000  0.36377000  0.97748000
   0.44178000  0.38347000  0.23645000
   0.69487000  0.54306000  0.27187000
   0.58528000  0.63663000  0.77241000
   0.38512000  0.43765000  0.72624000
   0.55829000  0.11651000  0.01356000
   0.30525000  0.95686000  0.97818000
   0.22533000  0.23439000  0.12921000
   0.23143000  0.25528000  0.62151000
   0.24800000  0.31519000  0.87505000
   0.29886000  0.27850000  0.38018000
   0.27414000  0.76613000  0.62083000
   0.26905000  0.74421000  0.12851000
   0.75207000  0.18474000  0.37495000
   0.70111000  0.22153000  0.86982000
   0.30818000  0.31342000  0.50935000
   0.72653000  0.74635000  0.49792000
   0.74542000  0.76969000  0.75536000
   0.80417000  0.72074000  0.25041000
   0.69174000  0.18663000  0.74064000
   0.27343000  0.75369000  0.75208000
   0.25457000  0.73031000  0.49464000
   0.69607000  0.27894000  0.49948000
   0.80738000  0.81420000  0.00929000
   0.22592000  0.24698000  0.99797000
   0.24582000  0.26936000  0.25544000
   0.30386000  0.22112000  0.75050000
   0.19266000  0.68576000  0.24072000
   0.77417000  0.25296000  0.25203000
   0.75420000  0.23064000  0.99456000
   0.19590000  0.77921000  0.99961000
 
 position of ions in cartesian coordinates  (Angst):
   4.43143280  0.34249751  7.54274980
   6.19999010  5.36943037  6.87744177
   9.95371557  5.47608849 10.60590286
   1.20941024  0.20152080 11.11813244
   1.03184713  0.82856807  3.92445335
  10.00851718  5.85337175  3.25871330
   2.63313069  3.81337519  7.39456755
   7.39595163  2.81748576  6.88219397
   7.85484269  4.54313583  9.06042974
   8.22015518  4.72742733  1.74967372
   8.45981474  5.07312058  5.40022753
   8.43646501  4.80460296 12.67426200
   6.58380577  1.65412414  1.73930528
   6.21538764  1.47653929  9.05049332
   4.12708733  4.21690465 12.60067490
   4.15044384  4.48485886  5.32649642
   3.05254332  3.52890819  0.34129438
   7.57415123  2.18987135 14.07630507
   4.59872601  2.38250619  3.40502346
   7.04141555  3.37991546  3.91509295
   6.38695576  3.91996967 11.12317265
   4.17401727  2.67656709 10.45829664
   4.48119626  0.72931382  0.19527223
   5.54614503  5.90878923 14.08638550
   2.49598182  1.45769774  1.86070240
   2.38987553  1.54277893  8.95012109
   2.62769936  1.89480167 12.60125093
   3.08264576  1.71088592  5.47482267
   4.73187465  4.74613788  8.94032868
   4.84116904  4.65459991  1.85062197
   5.97825164  1.12344962  5.39950750
   5.52298263  1.30799243 12.52593575
   3.22764738  1.91780661  7.33494904
   7.97186213  4.63356909  7.17035011
   8.07896254  4.75591518 10.87764230
   8.54673924  4.49606287  3.60605593
   5.37770502  1.10119808 10.66566537
   4.61504672  4.65589273 10.83040831
   4.50800328  4.53329581  7.12311612
   5.89068361  1.70251950  7.19281505
   9.05620523  5.10459166  0.13378164
   2.13876039  1.45562641 14.37137351
   2.72308084  1.66520613  3.67849098
   2.71478541  1.31654883 10.80765536
   4.00473392  4.27762371  3.46651405
   6.46737456  1.56268759  3.62938492
   5.88278848  1.35348410 14.32226744
   4.04059462  4.79283274 14.39499050
 


--------------------------------------------------------------------------------------------------------


 k-point  1 :   0.0000 0.0000 0.0000  plane waves:   21691
 k-point  2 :   0.5000-0.0000 0.0000  plane waves:   21718
 k-point  3 :   0.0000 0.5000 0.0000  plane waves:   21744
 k-point  4 :   0.5000 0.5000 0.0000  plane waves:   21694

 maximum and minimum number of plane-waves per node :      1990     1953

 maximum number of plane-waves:     21744
 maximum index in each direction: 
   IXMAX=   14   IYMAX=   14   IZMAX=   28
   IXMIN=  -14   IYMIN=  -15   IZMIN=  -28


 real space projection operators:
  total allocation   :      20481.06 KBytes
  max/ min on nodes  :       1908.83       1807.34


 parallel 3D FFT for wavefunctions:
    minimum data exchange during FFTs selected (reduces bandwidth)
 parallel 3D FFT for charge:
    minimum data exchange during FFTs selected (reduces bandwidth)


 total amount of memory used by VASP MPI-rank0    56442. kBytes
=======================================================================

   base      :      30000. kBytes
   nonlr-proj:       8682. kBytes
   fftplans  :       2118. kBytes
   grid      :       5536. kBytes
   one-center:        155. kBytes
   wavefun   :       9951. kBytes
 
     INWAV:  cpu time    0.0002: real time    0.0002
 Broyden mixing: mesh for mixing (old mesh)
   NGX = 29   NGY = 29   NGZ = 57
  (NGX  = 80   NGY  = 80   NGZ  =160)
  gives a total of  47937 points

 initial charge density was supplied:
 charge density of overlapping atoms calculated
 number of electron     336.0000000 magnetization      48.0000000
 keeping initial charge density in first step


--------------------------------------------------------------------------------------------------------


 Maximum index for non-local projection operator          796
 Maximum index for augmentation-charges          710 (set IRDMAX)


--------------------------------------------------------------------------------------------------------


 First call to EWALD:  gamma=   0.205
 Maximum number of real-space cells 4x 4x 2
 Maximum number of reciprocal cells 2x 2x 4

    FEWALD:  cpu time    0.0166: real time    0.0166


--------------------------------------- Iteration      1(   1)  ---------------------------------------


    POTLOK:  cpu time    0.1297: real time    0.1973
    SETDIJ:  cpu time    2.6650: real time    2.6709
     EDDAV:  cpu time    2.1798: real time    2.2659
       DOS:  cpu time    0.0067: real time    0.0115
    --------------------------------------------
      LOOP:  cpu time    4.9814: real time    5.1458

 eigenvalue-minimisations  :  3648
 total energy-change (2. order) : 0.4137771E+04  (-0.1725698E+05)
 number of electron     336.0000000 magnetization      48.0000000
 augmentation part      336.0000000 magnetization      48.0000000

 Free energy of the ion-electron system (eV)
  ---------------------------------------------------
  alpha Z        PSCENC =      1429.14025222
  Ewald energy   TEWEN  =    -18086.50842998
  -Hartree energ DENC   =     -6241.87016788
  -exchange      EXHF   =         0.00000000
  -V(xc)+E(xc)   XCENC  =       613.23287166
  PAW double counting   =     19905.99098173   -19318.37474755
  entropy T*S    EENTRO =        -0.01938143
  eigenvalues    EBANDS =      3037.67620249
  atomic energy  EATOM  =     22798.50317220
  Solvation  Ediel_sol  =         0.00000000
  ---------------------------------------------------
  free energy    TOTEN  =      4137.77075347 eV

  energy without entropy =     4137.79013490  energy(sigma->0) =     4137.78044418


--------------------------------------------------------------------------------------------------------




--------------------------------------- Iteration      1(   2)  ---------------------------------------


     EDDAV:  cpu time    2.1777: real time    2.2263
       DOS:  cpu time    0.0044: real time    0.0044
    --------------------------------------------
      LOOP:  cpu time    2.1821: real time    2.2307

 eigenvalue-minimisations  :  3720
 total energy-change (2. order) :-0.3959132E+04  (-0.3709785E+04)
 number of electron     336.0000000 magnetization      48.0000000
 augmentation part      336.0000000 magnetization      48.0000000

 Free energy of the ion-electron system (eV)
  ---------------------------------------------------
  alpha Z        PSCENC =      1429.14025222
  Ewald energy   TEWEN  =    -18086.50842998
  -Hartree energ DENC   =     -6241.87016788
  -exchange      EXHF   =         0.00000000
  -V(xc)+E(xc)   XCENC  =       613.23287166
  PAW double counting   =     19905.99098173   -19318.37474755
  entropy T*S    EENTRO =        -0.02170550
  eigenvalues    EBANDS =      -921.45313765
  atomic energy  EATOM  =     22798.50317220
  Solvation  Ediel_sol  =         0.00000000
  ---------------------------------------------------
  free energy    TOTEN  =       178.63908926 eV

  energy without entropy =      178.66079476  energy(sigma->0) =      178.64994201


--------------------------------------------------------------------------------------------------------




--------------------------------------- Iteration      1(   3)  ---------------------------------------


     EDDAV:  cpu time    2.5888: real time    2.6376
       DOS:  cpu time    0.0038: real time    0.0038
    --------------------------------------------
      LOOP:  cpu time    2.5926: real time    2.6414

 eigenvalue-minimisations  :  4680
 total energy-change (2. order) :-0.5410152E+03  (-0.5058263E+03)
 number of electron     336.0000000 magnetization      48.0000000
 augmentation part      336.0000000 magnetization      48.0000000

 Free energy of the ion-electron system (eV)
  ---------------------------------------------------
  alpha Z        PSCENC =      1429.14025222
  Ewald energy   TEWEN  =    -18086.50842998
  -Hartree energ DENC   =     -6241.87016788
  -exchange      EXHF   =         0.00000000
  -V(xc)+E(xc)   XCENC  =       613.23287166
  PAW double counting   =     19905.99098173   -19318.37474755
  entropy T*S    EENTRO =        -0.04265651
  eigenvalues    EBANDS =     -1462.44735038
  atomic energy  EATOM  =     22798.50317220
  Solvation  Ediel_sol  =         0.00000000
  ---------------------------------------------------
  free energy    TOTEN  =      -362.37607448 eV

  energy without entropy =     -362.33341797  energy(sigma->0) =     -362.35474623


--------------------------------------------------------------------------------------------------------




--------------------------------------- Iteration      1(   4)  ---------------------------------------


     EDDAV:  cpu time    2.4562: real time    2.5031
       DOS:  cpu time    0.0046: real time    0.0046
    --------------------------------------------
      LOOP:  cpu time    2.4607: real time    2.5077

 eigenvalue-minimisations  :  4332
 total energy-change (2. order) :-0.2614398E+02  (-0.2578758E+02)
 number of electron     336.0000000 magnetization      48.0000000
 augmentation part      336.0000000 magnetization      48.0000000

 Free energy of the ion-electron system (eV)
  ---------------------------------------------------
  alpha Z        PSCENC =      1429.14025222
  Ewald energy   TEWEN  =    -18086.50842998
  -Hartree energ DENC   =     -6241.87016788
  -exchange      EXHF   =         0.00000000
  -V(xc)+E(xc)   XCENC  =       613.23287166
  PAW double counting   =     19905.99098173   -19318.37474755
  entropy T*S    EENTRO =        -0.05019251
  eigenvalues    EBANDS =     -1488.58379829
  atomic energy  EATOM  =     22798.50317220
  Solvation  Ediel_sol  =         0.00000000
  ---------------------------------------------------
  free energy    TOTEN  =      -388.52005839 eV

  energy without entropy =     -388.46986588  energy(sigma->0) =     -388.49496214


--------------------------------------------------------------------------------------------------------




--------------------------------------- Iteration      1(   5)  ---------------------------------------


     EDDAV:  cpu time    2.4969: real time    2.5431
       DOS:  cpu time    0.0039: real time    0.0039
    CHARGE:  cpu time    0.1560: real time    0.1673
    MIXING:  cpu time    0.0141: real time    0.0188
    --------------------------------------------
      LOOP:  cpu time    2.6710: real time    2.7331

 eigenvalue-minimisations  :  4332
 total energy-change (2. order) :-0.6947464E+00  (-0.6933875E+00)
 number of electron     336.0000018 magnetization      44.4737838
 augmentation part       56.9058284 magnetization      37.0981161

 Broyden mixing:
  rms(total) = 0.15081E+02    rms(broyden)= 0.15081E+02
  rms(prec ) = 0.15552E+02
  weight for this iteration     100.00

 Free energy of the ion-electron system (eV)
  ---------------------------------------------------
  alpha Z        PSCENC =      1429.14025222
  Ewald energy   TEWEN  =    -18086.50842998
  -Hartree energ DENC   =     -6241.87016788
  -exchange      EXHF   =         0.00000000
  -V(xc)+E(xc)   XCENC  =       613.23287166
  PAW double counting   =     19905.99098173   -19318.37474755
  entropy T*S    EENTRO =        -0.05040759
  eigenvalues    EBANDS =     -1489.27832958
  atomic energy  EATOM  =     22798.50317220
  Solvation  Ediel_sol  =         0.00000000
  ---------------------------------------------------
  free energy    TOTEN  =      -389.21480476 eV

  energy without entropy =     -389.16439717  energy(sigma->0) =     -389.18960096


--------------------------------------------------------------------------------------------------------




--------------------------------------- Iteration      1(   6)  ---------------------------------------


    POTLOK:  cpu time    0.1146: real time    0.1606
    SETDIJ:  cpu time    2.6592: real time    2.6593
    EDDIAG:  cpu time    0.4824: real time    0.4898
  RMM-DIIS:  cpu time    1.1065: real time    1.1129
    ORTHCH:  cpu time    0.0435: real time    0.0435
       DOS:  cpu time    0.0074: real time    0.0074
    CHARGE:  cpu time    0.1504: real time    0.1504
    MIXING:  cpu time    0.0150: real time    0.0217
    --------------------------------------------
      LOOP:  cpu time    4.5790: real time    4.6455

 eigenvalue-minimisations  :  3670
 total energy-change (2. order) : 0.7186566E+02  (-0.1123411E+02)
 number of electron     336.0000017 magnetization      39.0642858
 augmentation part       59.4509119 magnetization      31.2701064

 Broyden mixing:
  rms(total) = 0.10065E+02    rms(broyden)= 0.10065E+02
  rms(prec ) = 0.10158E+02
  weight for this iteration     100.00

 eigenvalues of (default mixing * dielectric matrix)
  average eigenvalue GAMMA=   1.8516
  1.8516

 Free energy of the ion-electron system (eV)
  ---------------------------------------------------
  alpha Z        PSCENC =      1429.14025222
  Ewald energy   TEWEN  =    -18086.50842998
  -Hartree energ DENC   =     -6351.35013879
  -exchange      EXHF   =         0.00000000
  -V(xc)+E(xc)   XCENC  =       629.49061132
  PAW double counting   =     21968.79967802   -21399.80223019
  entropy T*S    EENTRO =        -0.05740693
  eigenvalues    EBANDS =     -1305.56465338
  atomic energy  EATOM  =     22798.50317220
  Solvation  Ediel_sol  =         0.00000000
  ---------------------------------------------------
  free energy    TOTEN  =      -317.34914550 eV

  energy without entropy =     -317.29173858  energy(sigma->0) =     -317.32044204


--------------------------------------------------------------------------------------------------------




--------------------------------------- Iteration      1(   7)  ---------------------------------------


    POTLOK:  cpu time    0.1116: real time    0.1585
    SETDIJ:  cpu time    2.6627: real time    2.6628
    EDDIAG:  cpu time    0.4780: real time    0.4780
  RMM-DIIS:  cpu time    1.0931: real time    1.0932
    ORTHCH:  cpu time    0.0432: real time    0.0432
       DOS:  cpu time    0.0044: real time    0.0044
    CHARGE:  cpu time    0.1462: real time    0.1462
    MIXING:  cpu time    0.0164: real time    0.0192
    --------------------------------------------
      LOOP:  cpu time    4.5556: real time    4.6055

 eigenvalue-minimisations  :  3648
 total energy-change (2. order) :-0.2141491E+02  (-0.5496574E+01)
 number of electron     336.0000005 magnetization      36.6795261
 augmentation part       61.1949378 magnetization      30.5486021

 Broyden mixing:
  rms(total) = 0.10041E+02    rms(broyden)= 0.10041E+02
  rms(prec ) = 0.10625E+02
  weight for this iteration     100.00

 eigenvalues of (default mixing * dielectric matrix)
  average eigenvalue GAMMA=   1.3125
  2.2757  0.3494

 Free energy of the ion-electron system (eV)
  ---------------------------------------------------
  alpha Z        PSCENC =      1429.14025222
  Ewald energy   TEWEN  =    -18086.50842998
  -Hartree energ DENC   =     -6367.48130043
  -exchange      EXHF   =         0.00000000
  -V(xc)+E(xc)   XCENC  =       633.67194273
  PAW double counting   =     24954.89743222   -24402.37741385
  entropy T*S    EENTRO =        -0.03006176
  eigenvalues    EBANDS =     -1298.57964483
  atomic energy  EATOM  =     22798.50317220
  Solvation  Ediel_sol  =         0.00000000
  ---------------------------------------------------
  free energy    TOTEN  =      -338.76405148 eV

  energy without entropy =     -338.73398972  energy(sigma->0) =     -338.74902060


--------------------------------------------------------------------------------------------------------




--------------------------------------- Iteration      1(   8)  ---------------------------------------


    POTLOK:  cpu time    0.1166: real time    0.2485
    SETDIJ:  cpu time    2.6590: real time    2.6591
    EDDIAG:  cpu time    0.4763: real time    0.4764
  RMM-DIIS:  cpu time    1.0906: real time    1.0906
    ORTHCH:  cpu time    0.0430: real time    0.0430
       DOS:  cpu time    0.0042: real time    0.0042
    CHARGE:  cpu time    0.1504: real time    0.1504
    MIXING:  cpu time    0.0155: real time    0.0159
    --------------------------------------------
      LOOP:  cpu time    4.5556: real time    4.6880

 eigenvalue-minimisations  :  3649
 total energy-change (2. order) : 0.1950109E+02  (-0.1147014E+01)
 number of electron     336.0000018 magnetization      30.3629253
 augmentation part       61.3864514 magnetization      22.7972968

 Broyden mixing:
  rms(total) = 0.57377E+01    rms(broyden)= 0.57376E+01
  rms(prec ) = 0.58368E+01
  weight for this iteration     100.00

 eigenvalues of (default mixing * dielectric matrix)
  average eigenvalue GAMMA=   1.7177
  3.5621  1.2077  0.3833

 Free energy of the ion-electron system (eV)
  ---------------------------------------------------
  alpha Z        PSCENC =      1429.14025222
  Ewald energy   TEWEN  =    -18086.50842998
  -Hartree energ DENC   =     -6368.35597212
  -exchange      EXHF   =         0.00000000
  -V(xc)+E(xc)   XCENC  =       634.09203858
  PAW double counting   =     26214.79120806   -25668.06921838
  entropy T*S    EENTRO =        -0.04129661
  eigenvalues    EBANDS =     -1272.81471466
  atomic energy  EATOM  =     22798.50317220
  Solvation  Ediel_sol  =         0.00000000
  ---------------------------------------------------
  free energy    TOTEN  =      -319.26296069 eV

  energy without entropy =     -319.22166408  energy(sigma->0) =     -319.24231238


--------------------------------------------------------------------------------------------------------




--------------------------------------- Iteration      1(   9)  ---------------------------------------


    POTLOK:  cpu time    0.1114: real time    0.1677
    SETDIJ:  cpu time    2.5961: real time    2.6588
    EDDIAG:  cpu time    0.4764: real time    0.4764
  RMM-DIIS:  cpu time    1.0889: real time    1.0889
    ORTHCH:  cpu time    0.0427: real time    0.0427
       DOS:  cpu time    0.0048: real time    0.0048
    CHARGE:  cpu time    0.1459: real time    0.1460
    MIXING:  cpu time    0.0157: real time    0.0161
    --------------------------------------------
      LOOP:  cpu time    4.4819: real time    4.6015

 eigenvalue-minimisations  :  3648
 total energy-change (2. order) :-0.3786036E+02  (-0.2344041E+01)
 number of electron     336.0000005 magnetization      27.3201565
 augmentation part       60.5560337 magnetization      22.7927706

 Broyden mixing:
  rms(total) = 0.78897E+01    rms(broyden)= 0.78896E+01
  rms(prec ) = 0.10504E+02
  weight for this iteration     100.00

 eigenvalues of (default mixing * dielectric matrix)
  average eigenvalue GAMMA=   1.5936
  4.4733  1.2564  0.3863  0.2585

 Free energy of the ion-electron system (eV)
  ---------------------------------------------------
  alpha Z        PSCENC =      1429.14025222
  Ewald energy   TEWEN  =    -18086.50842998
  -Hartree energ DENC   =     -6337.81559104
  -exchange      EXHF   =         0.00000000
  -V(xc)+E(xc)   XCENC  =       628.75236381
  PAW double counting   =     29200.13915478   -28665.13889580
  entropy T*S    EENTRO =        -0.02401581
  eigenvalues    EBANDS =     -1324.17132804
  atomic energy  EATOM  =     22798.50317220
  Solvation  Ediel_sol  =         0.00000000
  ---------------------------------------------------
  free energy    TOTEN  =      -357.12331765 eV

  energy without entropy =     -357.09930184  energy(sigma->0) =     -357.11130975


--------------------------------------------------------------------------------------------------------




--------------------------------------- Iteration      1(  10)  ---------------------------------------


    POTLOK:  cpu time    0.1150: real time    0.1607
    SETDIJ:  cpu time    2.6588: real time    2.6588
    EDDIAG:  cpu time    0.4766: real time    0.4766
  RMM-DIIS:  cpu time    1.0873: real time    1.0873
    ORTHCH:  cpu time    0.0431: real time    0.0431
       DOS:  cpu time    0.0042: real time    0.0042
    CHARGE:  cpu time    0.1475: real time    0.1475
    MIXING:  cpu time    0.0138: real time    0.0138
    --------------------------------------------
      LOOP:  cpu time    4.5462: real time    4.5922

 eigenvalue-minimisations  :  3648
 total energy-change (2. order) :-0.1699968E+02  (-0.2243417E+01)
 number of electron     336.0000003 magnetization      24.4034938
 augmentation part       60.6083543 magnetization      20.5664048

 Broyden mixing:
  rms(total) = 0.77794E+01    rms(broyden)= 0.77790E+01
  rms(prec ) = 0.11179E+02
  weight for this iteration     100.00

 eigenvalues of (default mixing * dielectric matrix)
  average eigenvalue GAMMA=   1.4394
  5.0719  1.2365  0.4105  0.3454  0.1326

 Free energy of the ion-electron system (eV)
  ---------------------------------------------------
  alpha Z        PSCENC =      1429.14025222
  Ewald energy   TEWEN  =    -18086.50842998
  -Hartree energ DENC   =     -6329.24520416
  -exchange      EXHF   =         0.00000000
  -V(xc)+E(xc)   XCENC  =       628.11017826
  PAW double counting   =     30640.09756390   -30110.92981280
  entropy T*S    EENTRO =        -0.02185761
  eigenvalues    EBANDS =     -1343.26886383
  atomic energy  EATOM  =     22798.50317220
  Solvation  Ediel_sol  =         0.00000000
  ---------------------------------------------------
  free energy    TOTEN  =      -374.12300179 eV

  energy without entropy =     -374.10114418  energy(sigma->0) =     -374.11207299


--------------------------------------------------------------------------------------------------------




--------------------------------------- Iteration      1(  11)  ---------------------------------------


    POTLOK:  cpu time    0.1160: real time    0.1667
    SETDIJ:  cpu time    2.6585: real time    2.6585
    EDDIAG:  cpu time    0.4768: real time    0.4768
  RMM-DIIS:  cpu time    1.0850: real time    1.1270
    ORTHCH:  cpu time    0.0436: real time    0.0436
       DOS:  cpu time    0.0046: real time    0.0046
    CHARGE:  cpu time    0.1469: real time    0.1469
    MIXING:  cpu time    0.0164: real time    0.0177
    --------------------------------------------
      LOOP:  cpu time    4.5478: real time    4.6419

 eigenvalue-minimisations  :  3648
 total energy-change (2. order) : 0.5218618E+02  (-0.7882012E+00)
 number of electron     336.0000013 magnetization      24.5144322
 augmentation part       60.3804463 magnetization      19.6143935

 Broyden mixing:
  rms(total) = 0.29703E+01    rms(broyden)= 0.29701E+01
  rms(prec ) = 0.34711E+01
  weight for this iteration     100.00

 eigenvalues of (default mixing * dielectric matrix)
  average eigenvalue GAMMA=   1.2210
  4.7533  1.2224  0.4259  0.4259  0.3755  0.1229

 Free energy of the ion-electron system (eV)
  ---------------------------------------------------
  alpha Z        PSCENC =      1429.14025222
  Ewald energy   TEWEN  =    -18086.50842998
  -Hartree energ DENC   =     -6325.33939669
  -exchange      EXHF   =         0.00000000
  -V(xc)+E(xc)   XCENC  =       628.53548468
  PAW double counting   =     31975.08609197   -31451.35719775
  entropy T*S    EENTRO =        -0.03485732
  eigenvalues    EBANDS =     -1289.96194097
  atomic energy  EATOM  =     22798.50317220
  Solvation  Ediel_sol  =         0.00000000
  ---------------------------------------------------
  free energy    TOTEN  =      -321.93682163 eV

  energy without entropy =     -321.90196431  energy(sigma->0) =     -321.91939297


--------------------------------------------------------------------------------------------------------




--------------------------------------- Iteration      1(  12)  ---------------------------------------


    POTLOK:  cpu time    0.1125: real time    0.1609
    SETDIJ:  cpu time    2.6586: real time    2.6586
    EDDIAG:  cpu time    0.4748: real time    0.4748
  RMM-DIIS:  cpu time    1.0914: real time    1.0914
    ORTHCH:  cpu time    0.0435: real time    0.0435
       DOS:  cpu time    0.0040: real time    0.0040
    CHARGE:  cpu time    0.1495: real time    0.1495
    MIXING:  cpu time    0.0137: real time    0.0137
    --------------------------------------------
      LOOP:  cpu time    4.5481: real time    4.5965

 eigenvalue-minimisations  :  3648
 total energy-change (2. order) :-0.3759742E+01  (-0.2716153E+00)
 number of electron     336.0000013 magnetization      24.4440226
 augmentation part       60.4855323 magnetization      19.1077124

 Broyden mixing:
  rms(total) = 0.37996E+01    rms(broyden)= 0.37995E+01
  rms(prec ) = 0.53514E+01
  weight for this iteration     100.00

 eigenvalues of (default mixing * dielectric matrix)
  average eigenvalue GAMMA=   1.0686
  4.6302  1.2089  0.5175  0.5175  0.3685  0.1220  0.1156

 Free energy of the ion-electron system (eV)
  ---------------------------------------------------
  alpha Z        PSCENC =      1429.14025222
  Ewald energy   TEWEN  =    -18086.50842998
  -Hartree energ DENC   =     -6329.14887538
  -exchange      EXHF   =         0.00000000
  -V(xc)+E(xc)   XCENC  =       628.93534959
  PAW double counting   =     31597.27767379   -31072.32774317
  entropy T*S    EENTRO =        -0.03830468
  eigenvalues    EBANDS =     -1291.52965811
  atomic energy  EATOM  =     22798.50317220
  Solvation  Ediel_sol  =         0.00000000
  ---------------------------------------------------
  free energy    TOTEN  =      -325.69656353 eV

  energy without entropy =     -325.65825884  energy(sigma->0) =     -325.67741119


--------------------------------------------------------------------------------------------------------




--------------------------------------- Iteration      1(  13)  ---------------------------------------


    POTLOK:  cpu time    0.1124: real time    0.1598
    SETDIJ:  cpu time    2.6596: real time    2.6597
    EDDIAG:  cpu time    0.4750: real time    0.4750
  RMM-DIIS:  cpu time    1.0892: real time    1.0892
    ORTHCH:  cpu time    0.0430: real time    0.0430
       DOS:  cpu time    0.0074: real time    0.0074
    CHARGE:  cpu time    0.1466: real time    0.1466
    MIXING:  cpu time    0.0139: real time    0.0139
    --------------------------------------------
      LOOP:  cpu time    4.5472: real time    4.5947

 eigenvalue-minimisations  :  3648
 total energy-change (2. order) : 0.5757712E+01  (-0.1407542E+00)
 number of electron     336.0000015 magnetization      24.0843194
 augmentation part       60.4467867 magnetization      19.3411212

 Broyden mixing:
  rms(total) = 0.22508E+01    rms(broyden)= 0.22507E+01
  rms(prec ) = 0.26463E+01
  weight for this iteration     100.00

 eigenvalues of (default mixing * dielectric matrix)
  average eigenvalue GAMMA=   0.9730
  4.5693  1.1926  0.5837  0.5837  0.3378  0.3028  0.1229  0.0913

 Free energy of the ion-electron system (eV)
  ---------------------------------------------------
  alpha Z        PSCENC =      1429.14025222
  Ewald energy   TEWEN  =    -18086.50842998
  -Hartree energ DENC   =     -6332.23150386
  -exchange      EXHF   =         0.00000000
  -V(xc)+E(xc)   XCENC  =       629.24073184
  PAW double counting   =     31388.86981729   -30863.28571221
  entropy T*S    EENTRO =        -0.03177467
  eigenvalues    EBANDS =     -1283.63540423
  atomic energy  EATOM  =     22798.50317220
  Solvation  Ediel_sol  =         0.00000000
  ---------------------------------------------------
  free energy    TOTEN  =      -319.93885140 eV

  energy without entropy =     -319.90707673  energy(sigma->0) =     -319.92296407


--------------------------------------------------------------------------------------------------------




--------------------------------------- Iteration      1(  14)  ---------------------------------------


    POTLOK:  cpu time    0.1119: real time    0.1588
    SETDIJ:  cpu time    2.6586: real time    2.6587
    EDDIAG:  cpu time    0.4758: real time    0.4758
  RMM-DIIS:  cpu time    1.0982: real time    1.0982
    ORTHCH:  cpu time    0.0429: real time    0.0429
       DOS:  cpu time    0.0042: real time    0.0042
    CHARGE:  cpu time    0.1459: real time    0.1460
    MIXING:  cpu time    0.0152: real time    0.0152
    --------------------------------------------
      LOOP:  cpu time    4.5527: real time    4.5998

 eigenvalue-minimisations  :  3648
 total energy-change (2. order) : 0.9793977E+00  (-0.4295341E-01)
 number of electron     336.0000016 magnetization      23.0930522
 augmentation part       60.4986407 magnetization      18.3099092

 Broyden mixing:
  rms(total) = 0.17258E+01    rms(broyden)= 0.17257E+01
  rms(prec ) = 0.17943E+01
  weight for this iteration     100.00

 eigenvalues of (default mixing * dielectric matrix)
  average eigenvalue GAMMA=   0.9487
  4.5712  1.1619  0.7854  0.7854  0.4015  0.4015  0.2174  0.1222  0.0919

 Free energy of the ion-electron system (eV)
  ---------------------------------------------------
  alpha Z        PSCENC =      1429.14025222
  Ewald energy   TEWEN  =    -18086.50842998
  -Hartree energ DENC   =     -6334.53267840
  -exchange      EXHF   =         0.00000000
  -V(xc)+E(xc)   XCENC  =       629.45032346
  PAW double counting   =     31280.52241318   -30754.69789643
  entropy T*S    EENTRO =        -0.03488261
  eigenvalues    EBANDS =     -1280.80172732
  atomic energy  EATOM  =     22798.50317220
  Solvation  Ediel_sol  =         0.00000000
  ---------------------------------------------------
  free energy    TOTEN  =      -318.95945368 eV

  energy without entropy =     -318.92457107  energy(sigma->0) =     -318.94201238


--------------------------------------------------------------------------------------------------------




--------------------------------------- Iteration      1(  15)  ---------------------------------------


    POTLOK:  cpu time    0.1110: real time    0.1573
    SETDIJ:  cpu time    2.6595: real time    2.6596
    EDDIAG:  cpu time    0.4741: real time    0.4742
  RMM-DIIS:  cpu time    1.0844: real time    1.1162
    ORTHCH:  cpu time    0.0437: real time    0.0437
       DOS:  cpu time    0.0039: real time    0.0039
    CHARGE:  cpu time    0.1467: real time    0.1467
    MIXING:  cpu time    0.0144: real time    0.0144
    --------------------------------------------
      LOOP:  cpu time    4.5378: real time    4.6160

 eigenvalue-minimisations  :  3648
 total energy-change (2. order) :-0.1361180E+00  (-0.2227582E-01)
 number of electron     336.0000016 magnetization      21.0307595
 augmentation part       60.5528983 magnetization      16.2755964

 Broyden mixing:
  rms(total) = 0.15642E+01    rms(broyden)= 0.15642E+01
  rms(prec ) = 0.16490E+01
  weight for this iteration     100.00

 eigenvalues of (default mixing * dielectric matrix)
  average eigenvalue GAMMA=   0.9651
  4.6670  1.1473  1.1473  0.9998  0.4666  0.4666  0.3341  0.2091  0.1225  0.0912

 Free energy of the ion-electron system (eV)
  ---------------------------------------------------
  alpha Z        PSCENC =      1429.14025222
  Ewald energy   TEWEN  =    -18086.50842998
  -Hartree energ DENC   =     -6337.00505407
  -exchange      EXHF   =         0.00000000
  -V(xc)+E(xc)   XCENC  =       629.61249966
  PAW double counting   =     31245.67028243   -30719.98336432
  entropy T*S    EENTRO =        -0.03550810
  eigenvalues    EBANDS =     -1278.48942175
  atomic energy  EATOM  =     22798.50317220
  Solvation  Ediel_sol  =         0.00000000
  ---------------------------------------------------
  free energy    TOTEN  =      -319.09557170 eV

  energy without entropy =     -319.06006360  energy(sigma->0) =     -319.07781765


--------------------------------------------------------------------------------------------------------




--------------------------------------- Iteration      1(  16)  ---------------------------------------


    POTLOK:  cpu time    0.1116: real time    0.1587
    SETDIJ:  cpu time    2.6600: real time    2.6601
    EDDIAG:  cpu time    0.4766: real time    0.4767
  RMM-DIIS:  cpu time    1.0905: real time    1.0905
    ORTHCH:  cpu time    0.0439: real time    0.0439
       DOS:  cpu time    0.0043: real time    0.0043
    CHARGE:  cpu time    0.1498: real time    0.1498
    MIXING:  cpu time    0.0349: real time    0.0423
    --------------------------------------------
      LOOP:  cpu time    4.5716: real time    4.6263

 eigenvalue-minimisations  :  3648
 total energy-change (2. order) :-0.3553928E+00  (-0.2325591E-01)
 number of electron     336.0000015 magnetization      15.5779281
 augmentation part       60.5975321 magnetization      11.0673523

 Broyden mixing:
  rms(total) = 0.13922E+01    rms(broyden)= 0.13922E+01
  rms(prec ) = 0.14874E+01
  weight for this iteration     100.00

 eigenvalues of (default mixing * dielectric matrix)
  average eigenvalue GAMMA=   1.1533
  5.1877  3.1031  1.1261  0.8074  0.8074  0.5506  0.3702  0.3184  0.2022  0.1225
  0.0913

 Free energy of the ion-electron system (eV)
  ---------------------------------------------------
  alpha Z        PSCENC =      1429.14025222
  Ewald energy   TEWEN  =    -18086.50842998
  -Hartree energ DENC   =     -6340.48584224
  -exchange      EXHF   =         0.00000000
  -V(xc)+E(xc)   XCENC  =       629.72483414
  PAW double counting   =     31287.40575878   -30762.31519353
  entropy T*S    EENTRO =        -0.03480480
  eigenvalues    EBANDS =     -1274.88071130
  atomic energy  EATOM  =     22798.50317220
  Solvation  Ediel_sol  =         0.00000000
  ---------------------------------------------------
  free energy    TOTEN  =      -319.45096450 eV

  energy without entropy =     -319.41615970  energy(sigma->0) =     -319.43356210


--------------------------------------------------------------------------------------------------------




--------------------------------------- Iteration      1(  17)  ---------------------------------------


    POTLOK:  cpu time    0.1134: real time    0.1591
    SETDIJ:  cpu time    2.6598: real time    2.6599
    EDDIAG:  cpu time    0.4729: real time    0.4729
  RMM-DIIS:  cpu time    1.0905: real time    1.0905
    ORTHCH:  cpu time    0.0424: real time    0.0424
       DOS:  cpu time    0.0053: real time    0.0053
    CHARGE:  cpu time    0.1480: real time    0.1480
    MIXING:  cpu time    0.0180: real time    0.0189
    --------------------------------------------
      LOOP:  cpu time    4.5503: real time    4.5970

 eigenvalue-minimisations  :  3648
 total energy-change (2. order) :-0.8711946E+00  (-0.3864436E-01)
 number of electron     336.0000017 magnetization      10.8274201
 augmentation part       60.5449074 magnetization       7.4788699

 Broyden mixing:
  rms(total) = 0.11621E+01    rms(broyden)= 0.11621E+01
  rms(prec ) = 0.12454E+01
  weight for this iteration     100.00

 eigenvalues of (default mixing * dielectric matrix)
  average eigenvalue GAMMA=   1.3561
  6.8733  4.5185  1.0780  0.8477  0.8477  0.5825  0.4241  0.3659  0.3190  0.2026
  0.1225  0.0913

 Free energy of the ion-electron system (eV)
  ---------------------------------------------------
  alpha Z        PSCENC =      1429.14025222
  Ewald energy   TEWEN  =    -18086.50842998
  -Hartree energ DENC   =     -6345.07402911
  -exchange      EXHF   =         0.00000000
  -V(xc)+E(xc)   XCENC  =       629.44176636
  PAW double counting   =     31380.99252015   -30857.15949817
  entropy T*S    EENTRO =        -0.04580652
  eigenvalues    EBANDS =     -1269.61210628
  atomic energy  EATOM  =     22798.50317220
  Solvation  Ediel_sol  =         0.00000000
  ---------------------------------------------------
  free energy    TOTEN  =      -320.32215912 eV

  energy without entropy =     -320.27635260  energy(sigma->0) =     -320.29925586


--------------------------------------------------------------------------------------------------------




--------------------------------------- Iteration      1(  18)  ---------------------------------------


    POTLOK:  cpu time    0.1118: real time    0.1584
    SETDIJ:  cpu time    2.6608: real time    2.6608
    EDDIAG:  cpu time    0.4720: real time    0.4720
  RMM-DIIS:  cpu time    1.0886: real time    1.0886
    ORTHCH:  cpu time    0.0434: real time    0.0434
       DOS:  cpu time    0.0040: real time    0.0040
    CHARGE:  cpu time    0.1482: real time    0.1482
    MIXING:  cpu time    0.0180: real time    0.0190
    --------------------------------------------
      LOOP:  cpu time    4.5467: real time    4.5944

 eigenvalue-minimisations  :  3648
 total energy-change (2. order) :-0.3889249E+00  (-0.2538046E-01)
 number of electron     336.0000017 magnetization       9.4907772
 augmentation part       60.4506269 magnetization       7.0198269

 Broyden mixing:
  rms(total) = 0.88701E+00    rms(broyden)= 0.88700E+00
  rms(prec ) = 0.93318E+00
  weight for this iteration     100.00

 eigenvalues of (default mixing * dielectric matrix)
  average eigenvalue GAMMA=   1.3568
  7.5203  4.7257  1.1235  0.8796  0.8796  0.5274  0.5274  0.3630  0.3630  0.3123
  0.2024  0.1225  0.0913

 Free energy of the ion-electron system (eV)
  ---------------------------------------------------
  alpha Z        PSCENC =      1429.14025222
  Ewald energy   TEWEN  =    -18086.50842998
  -Hartree energ DENC   =     -6347.20517326
  -exchange      EXHF   =         0.00000000
  -V(xc)+E(xc)   XCENC  =       629.04135159
  PAW double counting   =     31152.11782729   -30628.14454630
  entropy T*S    EENTRO =        -0.03177862
  eigenvalues    EBANDS =     -1267.62375920
  atomic energy  EATOM  =     22798.50317220
  Solvation  Ediel_sol  =         0.00000000
  ---------------------------------------------------
  free energy    TOTEN  =      -320.71108406 eV

  energy without entropy =     -320.67930544  energy(sigma->0) =     -320.69519475


--------------------------------------------------------------------------------------------------------




--------------------------------------- Iteration      1(  19)  ---------------------------------------


    POTLOK:  cpu time    0.1126: real time    0.1612
    SETDIJ:  cpu time    2.6598: real time    2.6599
    EDDIAG:  cpu time    0.4729: real time    0.4729
  RMM-DIIS:  cpu time    1.0951: real time    1.0952
    ORTHCH:  cpu time    0.0431: real time    0.0431
       DOS:  cpu time    0.0043: real time    0.0043
    CHARGE:  cpu time    0.1484: real time    0.1484
    MIXING:  cpu time    0.0182: real time    0.0187
    --------------------------------------------
      LOOP:  cpu time    4.5543: real time    4.6036

 eigenvalue-minimisations  :  3648
 total energy-change (2. order) :-0.2272253E-01  (-0.7075324E-02)
 number of electron     336.0000017 magnetization       7.8331969
 augmentation part       60.4402672 magnetization       5.5219196

 Broyden mixing:
  rms(total) = 0.79385E+00    rms(broyden)= 0.79385E+00
  rms(prec ) = 0.80931E+00
  weight for this iteration     100.00

 eigenvalues of (default mixing * dielectric matrix)
  average eigenvalue GAMMA=   1.4260
  8.1531  4.9409  1.3881  1.1302  1.1302  0.6613  0.6613  0.4166  0.4166  0.3365
  0.3127  0.2024  0.1225  0.0913

 Free energy of the ion-electron system (eV)
  ---------------------------------------------------
  alpha Z        PSCENC =      1429.14025222
  Ewald energy   TEWEN  =    -18086.50842998
  -Hartree energ DENC   =     -6346.87699371
  -exchange      EXHF   =         0.00000000
  -V(xc)+E(xc)   XCENC  =       628.92191438
  PAW double counting   =     31015.90260973   -30491.58127274
  entropy T*S    EENTRO =        -0.03080319
  eigenvalues    EBANDS =     -1268.20425550
  atomic energy  EATOM  =     22798.50317220
  Solvation  Ediel_sol  =         0.00000000
  ---------------------------------------------------
  free energy    TOTEN  =      -320.73380658 eV

  energy without entropy =     -320.70300340  energy(sigma->0) =     -320.71840499


--------------------------------------------------------------------------------------------------------




--------------------------------------- Iteration      1(  20)  ---------------------------------------


    POTLOK:  cpu time    0.1181: real time    0.1640
    SETDIJ:  cpu time    2.6590: real time    2.6590
    EDDIAG:  cpu time    0.4734: real time    0.4735
  RMM-DIIS:  cpu time    1.0953: real time    1.0954
    ORTHCH:  cpu time    0.0433: real time    0.0433
       DOS:  cpu time    0.0047: real time    0.0047
    CHARGE:  cpu time    0.1522: real time    0.1522
    MIXING:  cpu time    0.0160: real time    0.0199
    --------------------------------------------
      LOOP:  cpu time    4.5620: real time    4.6119

 eigenvalue-minimisations  :  3648
 total energy-change (2. order) :-0.1338214E+00  (-0.7060747E-02)
 number of electron     336.0000017 magnetization       6.0704507
 augmentation part       60.4964437 magnetization       3.9853177

 Broyden mixing:
  rms(total) = 0.74627E+00    rms(broyden)= 0.74627E+00
  rms(prec ) = 0.78037E+00
  weight for this iteration     100.00

 eigenvalues of (default mixing * dielectric matrix)
  average eigenvalue GAMMA=   1.5084
  9.1319  5.0549  2.3660  1.1451  1.1451  0.7090  0.7090  0.4944  0.4406  0.3620
  0.3447  0.3069  0.2025  0.1225  0.0913

 Free energy of the ion-electron system (eV)
  ---------------------------------------------------
  alpha Z        PSCENC =      1429.14025222
  Ewald energy   TEWEN  =    -18086.50842998
  -Hartree energ DENC   =     -6345.18123293
  -exchange      EXHF   =         0.00000000
  -V(xc)+E(xc)   XCENC  =       628.87006882
  PAW double counting   =     30886.30650134   -30361.61086522
  entropy T*S    EENTRO =        -0.02851368
  eigenvalues    EBANDS =     -1270.35858079
  atomic energy  EATOM  =     22798.50317220
  Solvation  Ediel_sol  =         0.00000000
  ---------------------------------------------------
  free energy    TOTEN  =      -320.86762802 eV

  energy without entropy =     -320.83911434  energy(sigma->0) =     -320.85337118


--------------------------------------------------------------------------------------------------------




--------------------------------------- Iteration      1(  21)  ---------------------------------------


    POTLOK:  cpu time    0.1120: real time    0.1609
    SETDIJ:  cpu time    2.6577: real time    2.6578
    EDDIAG:  cpu time    0.4782: real time    0.4782
  RMM-DIIS:  cpu time    1.0862: real time    1.0862
    ORTHCH:  cpu time    0.0428: real time    0.0428
       DOS:  cpu time    0.0059: real time    0.0059
    CHARGE:  cpu time    0.1480: real time    0.1480
    MIXING:  cpu time    0.0199: real time    0.0222
    --------------------------------------------
      LOOP:  cpu time    4.5507: real time    4.6019

 eigenvalue-minimisations  :  3648
 total energy-change (2. order) :-0.8358503E-01  (-0.1118022E-01)
 number of electron     336.0000017 magnetization       3.9151325
 augmentation part       60.5390094 magnetization       2.0804363

 Broyden mixing:
  rms(total) = 0.61244E+00    rms(broyden)= 0.61243E+00
  rms(prec ) = 0.65451E+00
  weight for this iteration     100.00

 eigenvalues of (default mixing * dielectric matrix)
  average eigenvalue GAMMA=   1.6689
 11.1922  4.8621  3.8999  1.1074  0.9799  0.9799  0.7182  0.7182  0.4504  0.3769
  0.3769  0.3123  0.3123  0.2025  0.1225  0.0913

 Free energy of the ion-electron system (eV)
  ---------------------------------------------------
  alpha Z        PSCENC =      1429.14025222
  Ewald energy   TEWEN  =    -18086.50842998
  -Hartree energ DENC   =     -6342.24087452
  -exchange      EXHF   =         0.00000000
  -V(xc)+E(xc)   XCENC  =       628.71768278
  PAW double counting   =     30856.23679698   -30331.43010606
  entropy T*S    EENTRO =        -0.02956596
  eigenvalues    EBANDS =     -1273.34014072
  atomic energy  EATOM  =     22798.50317220
  Solvation  Ediel_sol  =         0.00000000
  ---------------------------------------------------
  free energy    TOTEN  =      -320.95121305 eV

  energy without entropy =     -320.92164709  energy(sigma->0) =     -320.93643007


--------------------------------------------------------------------------------------------------------




--------------------------------------- Iteration      1(  22)  ---------------------------------------


    POTLOK:  cpu time    0.1140: real time    0.1605
    SETDIJ:  cpu time    2.6580: real time    2.6581
    EDDIAG:  cpu time    0.4790: real time    0.4789
  RMM-DIIS:  cpu time    1.0898: real time    1.0899
    ORTHCH:  cpu time    0.0437: real time    0.0437
       DOS:  cpu time    0.0043: real time    0.0043
    CHARGE:  cpu time    0.1481: real time    0.1481
    MIXING:  cpu time    0.0189: real time    0.0206
    --------------------------------------------
      LOOP:  cpu time    4.5559: real time    4.6041

 eigenvalue-minimisations  :  3648
 total energy-change (2. order) :-0.4764620E-01  (-0.1079483E-01)
 number of electron     336.0000016 magnetization       3.4129950
 augmentation part       60.5312419 magnetization       2.0181792

 Broyden mixing:
  rms(total) = 0.44806E+00    rms(broyden)= 0.44805E+00
  rms(prec ) = 0.47010E+00
  weight for this iteration     100.00

 eigenvalues of (default mixing * dielectric matrix)
  average eigenvalue GAMMA=   1.6690
 11.5129  5.0855  4.2410  1.0608  1.0132  1.0132  0.8061  0.6930  0.6930  0.4642
  0.1225  0.0913  0.2025  0.3824  0.3631  0.3176  0.3114

 Free energy of the ion-electron system (eV)
  ---------------------------------------------------
  alpha Z        PSCENC =      1429.14025222
  Ewald energy   TEWEN  =    -18086.50842998
  -Hartree energ DENC   =     -6337.76526281
  -exchange      EXHF   =         0.00000000
  -V(xc)+E(xc)   XCENC  =       628.38728624
  PAW double counting   =     30942.66747313   -30418.04112970
  entropy T*S    EENTRO =        -0.03632050
  eigenvalues    EBANDS =     -1277.34590005
  atomic energy  EATOM  =     22798.50317220
  Solvation  Ediel_sol  =         0.00000000
  ---------------------------------------------------
  free energy    TOTEN  =      -320.99885925 eV

  energy without entropy =     -320.96253875  energy(sigma->0) =     -320.98069900


--------------------------------------------------------------------------------------------------------




--------------------------------------- Iteration      1(  23)  ---------------------------------------


    POTLOK:  cpu time    0.1152: real time    0.1613
    SETDIJ:  cpu time    2.6568: real time    2.6568
    EDDIAG:  cpu time    0.4766: real time    0.4767
  RMM-DIIS:  cpu time    1.0810: real time    1.1216
    ORTHCH:  cpu time    0.0436: real time    0.0436
       DOS:  cpu time    0.0041: real time    0.0041
    CHARGE:  cpu time    0.1474: real time    0.1474
    MIXING:  cpu time    0.0166: real time    0.0166
    --------------------------------------------
      LOOP:  cpu time    4.5414: real time    4.6281

 eigenvalue-minimisations  :  3648
 total energy-change (2. order) :-0.9996326E-02  (-0.1704470E-02)
 number of electron     336.0000016 magnetization       2.9571095
 augmentation part       60.5390778 magnetization       1.6643495

 Broyden mixing:
  rms(total) = 0.38967E+00    rms(broyden)= 0.38967E+00
  rms(prec ) = 0.40746E+00
  weight for this iteration     100.00

 eigenvalues of (default mixing * dielectric matrix)
  average eigenvalue GAMMA=   1.6863
 11.8597  5.5067  4.3837  1.2020  1.2020  0.9977  0.9977  0.6902  0.6902  0.5889
  0.1225  0.0913  0.4434  0.2025  0.3846  0.3643  0.3132  0.3132

 Free energy of the ion-electron system (eV)
  ---------------------------------------------------
  alpha Z        PSCENC =      1429.14025222
  Ewald energy   TEWEN  =    -18086.50842998
  -Hartree energ DENC   =     -6337.73994513
  -exchange      EXHF   =         0.00000000
  -V(xc)+E(xc)   XCENC  =       628.38426716
  PAW double counting   =     30952.56957286   -30427.85452385
  entropy T*S    EENTRO =        -0.03701366
  eigenvalues    EBANDS =     -1277.46620740
  atomic energy  EATOM  =     22798.50317220
  Solvation  Ediel_sol  =         0.00000000
  ---------------------------------------------------
  free energy    TOTEN  =      -321.00885558 eV

  energy without entropy =     -320.97184192  energy(sigma->0) =     -320.99034875


--------------------------------------------------------------------------------------------------------




--------------------------------------- Iteration      1(  24)  ---------------------------------------


    POTLOK:  cpu time    0.1145: real time    0.1608
    SETDIJ:  cpu time    2.6574: real time    2.6575
    EDDIAG:  cpu time    0.4766: real time    0.4766
  RMM-DIIS:  cpu time    1.1209: real time    1.1210
    ORTHCH:  cpu time    0.0439: real time    0.0439
       DOS:  cpu time    0.0041: real time    0.0041
    CHARGE:  cpu time    0.1467: real time    0.1467
    MIXING:  cpu time    0.0166: real time    0.0166
    --------------------------------------------
      LOOP:  cpu time    4.5808: real time    4.6272

 eigenvalue-minimisations  :  3648
 total energy-change (2. order) :-0.1479798E-01  (-0.1942904E-02)
 number of electron     336.0000016 magnetization       2.0883338
 augmentation part       60.5374304 magnetization       0.9409388

 Broyden mixing:
  rms(total) = 0.36298E+00    rms(broyden)= 0.36298E+00
  rms(prec ) = 0.38369E+00
  weight for this iteration     100.00

 eigenvalues of (default mixing * dielectric matrix)
  average eigenvalue GAMMA=   1.8638
 13.0190  7.4379  4.4968  2.1580  1.3552  1.0799  0.9355  0.9355  0.7039  0.7039
  0.0913  0.1225  0.4490  0.2025  0.3910  0.3638  0.3139  0.3139  0.3392

 Free energy of the ion-electron system (eV)
  ---------------------------------------------------
  alpha Z        PSCENC =      1429.14025222
  Ewald energy   TEWEN  =    -18086.50842998
  -Hartree energ DENC   =     -6338.73923179
  -exchange      EXHF   =         0.00000000
  -V(xc)+E(xc)   XCENC  =       628.41341234
  PAW double counting   =     30965.25928433   -30440.47185128
  entropy T*S    EENTRO =        -0.03743541
  eigenvalues    EBANDS =     -1276.58282620
  atomic energy  EATOM  =     22798.50317220
  Solvation  Ediel_sol  =         0.00000000
  ---------------------------------------------------
  free energy    TOTEN  =      -321.02365356 eV

  energy without entropy =     -320.98621815  energy(sigma->0) =     -321.00493585


--------------------------------------------------------------------------------------------------------




--------------------------------------- Iteration      1(  25)  ---------------------------------------


    POTLOK:  cpu time    0.1135: real time    0.1596
    SETDIJ:  cpu time    2.6579: real time    2.6580
[...]
    STRESS:  cpu time    1.9756: real time    1.9860
    FORCOR:  cpu time    0.1226: real time    0.1258
    FORHAR:  cpu time    0.0229: real time    0.0259
    MIXING:  cpu time    0.0254: real time    0.0254
    OFIELD:  cpu time    0.0002: real time    0.0010

  FORCE on cell =-STRESS in cart. coord.  units (eV):
  Direction    XX          YY          ZZ          XY          YZ          ZX
  --------------------------------------------------------------------------------------
  Alpha Z  1429.14025  1429.14025  1429.14025
  Ewald   -6650.22371 -7355.00133 -4081.37859  1125.62392   -71.69916  -475.36226
  Hartree  1822.57910  1604.23564  2914.58245   535.31444    17.58263  -257.69768
  E(xc)   -1607.38225 -1610.10455 -1599.56627     3.12595    -0.70091    -1.00234
  Local   -1073.47809  -228.99105 -4497.17097 -1598.72862    39.89028   711.91060
  n-local  -831.28791  -823.15423  -788.16183    -0.32102     0.62425     2.16599
  augment   843.32489   858.39918   782.24183   -12.04522     3.03392     3.39959
  Kinetic  6067.19098  6125.33989  5840.26307   -53.02845    11.32795    16.72524
  Fock        0.00000     0.00000     0.00000     0.00000     0.00000     0.00000
  -------------------------------------------------------------------------------------
  Total      -0.13674    -0.13619    -0.05005    -0.05900     0.05895     0.13916
  in kB      -0.33664    -0.33528    -0.12322    -0.14524     0.14512     0.34258
  external pressure =       -0.27 kB  Pullay stress =        0.00 kB


 VOLUME and BASIS-vectors are now :
 -----------------------------------------------------------------------------
  energy-cutoff  :      600.00
  volume of cell :      650.81
      direct lattice vectors                 reciprocal lattice vectors
     7.207290000  0.000000000  0.000000000     0.138748406 -0.088094883  0.003994305
     3.981312720  6.270520764  0.000000000     0.000000000  0.159476388  0.001032745
    -0.473776947 -0.093256119 14.400606737     0.000000000  0.000000000  0.069441519

  length of vectors
     7.207290000  7.427670000 14.408700000     0.164401287  0.159479732  0.069441519


 FORCES acting on ions
    electron-ion (+dipol)            ewald-force                    non-local-force                 convergence-correction
 -----------------------------------------------------------------------------------------------
   -.263E+02 0.484E+02 -.390E+02   0.283E+02 -.576E+02 0.496E+02   -.200E+01 0.919E+01 -.105E+02   0.883E-03 -.354E-02 -.103E-01
   0.667E+02 -.117E+03 0.657E+02   -.665E+02 0.139E+03 -.738E+02   -.218E+00 -.219E+02 0.809E+01   0.441E-02 0.408E-02 -.179E-01
   -.279E+02 0.242E+02 0.476E+02   0.333E+02 -.291E+02 -.539E+02   -.540E+01 0.496E+01 0.628E+01   -.128E-02 -.187E-02 -.556E-03
   0.596E+02 -.952E+02 -.181E+02   -.728E+02 0.104E+03 0.274E+02   0.132E+02 -.935E+01 -.927E+01   0.185E-02 0.697E-02 0.117E-01
   -.666E+02 0.117E+03 -.659E+02   0.664E+02 -.139E+03 0.740E+02   0.211E+00 0.219E+02 -.814E+01   -.482E-02 0.925E-03 -.919E-02
   0.258E+02 -.482E+02 0.389E+02   -.278E+02 0.573E+02 -.493E+02   0.195E+01 -.917E+01 0.105E+02   0.122E-02 0.712E-03 -.839E-02
   0.280E+02 -.242E+02 -.476E+02   -.333E+02 0.292E+02 0.539E+02   0.540E+01 -.496E+01 -.627E+01   -.566E-02 0.161E-02 -.107E-01
   -.596E+02 0.951E+02 0.181E+02   0.728E+02 -.104E+03 -.273E+02   -.132E+02 0.934E+01 0.928E+01   -.314E-03 -.422E-02 -.174E-01
   0.256E+02 0.710E+02 -.269E+02   -.303E+02 -.753E+02 0.253E+02   0.466E+01 0.433E+01 0.159E+01   0.175E-02 -.340E-03 -.111E-01
   0.169E+03 0.206E+02 0.648E+01   -.187E+03 -.217E+02 -.758E+01   0.177E+02 0.104E+01 0.109E+01   0.459E-02 0.173E-02 0.734E-02
   0.240E+02 -.537E+02 0.391E+02   -.186E+02 0.719E+02 -.396E+02   -.542E+01 -.181E+02 0.475E+00   0.547E-03 0.164E-02 -.222E-01
   0.525E+02 0.554E+02 -.350E+01   -.497E+02 -.591E+02 0.490E+01   -.280E+01 0.366E+01 -.142E+01   -.597E-03 -.173E-02 0.276E-01
   -.258E+02 -.705E+02 0.267E+02   0.305E+02 0.747E+02 -.252E+02   -.469E+01 -.428E+01 -.158E+01   -.242E-02 -.408E-02 0.105E-01
   -.170E+03 -.208E+02 -.667E+01   0.187E+03 0.219E+02 0.778E+01   -.177E+02 -.109E+01 -.109E+01   0.138E-02 -.140E-02 -.148E-01
   -.239E+02 0.537E+02 -.390E+02   0.185E+02 -.718E+02 0.395E+02   0.542E+01 0.181E+02 -.467E+00   -.144E-02 0.330E-02 0.380E-01
   -.525E+02 -.555E+02 0.348E+01   0.497E+02 0.591E+02 -.488E+01   0.280E+01 -.368E+01 0.142E+01   0.393E-03 0.218E-02 -.231E-01
   -.258E+02 0.482E+02 -.388E+02   0.277E+02 -.574E+02 0.492E+02   -.194E+01 0.918E+01 -.105E+02   0.395E-02 0.817E-02 0.191E-01
   0.666E+02 -.117E+03 0.660E+02   -.664E+02 0.139E+03 -.741E+02   -.217E+00 -.219E+02 0.814E+01   0.393E-02 -.105E-02 0.181E-01
   -.277E+02 0.244E+02 0.478E+02   0.331E+02 -.294E+02 -.541E+02   -.541E+01 0.500E+01 0.632E+01   0.225E-02 -.149E-02 -.802E-02
   0.594E+02 -.952E+02 -.180E+02   -.726E+02 0.105E+03 0.272E+02   0.132E+02 -.935E+01 -.920E+01   0.129E-02 -.187E-02 -.103E-01
   -.667E+02 0.117E+03 -.657E+02   0.664E+02 -.139E+03 0.738E+02   0.223E+00 0.219E+02 -.808E+01   0.335E-02 -.905E-03 0.101E-01
   0.263E+02 -.484E+02 0.389E+02   -.283E+02 0.576E+02 -.494E+02   0.200E+01 -.919E+01 0.105E+02   -.198E-02 -.138E-02 -.521E-02
   0.277E+02 -.244E+02 -.478E+02   -.331E+02 0.294E+02 0.541E+02   0.540E+01 -.500E+01 -.632E+01   -.778E-03 -.162E-02 0.208E-01
   -.593E+02 0.953E+02 0.180E+02   0.726E+02 -.105E+03 -.272E+02   -.132E+02 0.936E+01 0.917E+01   -.486E-02 -.657E-02 0.210E-01
   0.258E+02 0.704E+02 -.268E+02   -.305E+02 -.747E+02 0.252E+02   0.469E+01 0.428E+01 0.157E+01   0.193E-02 0.985E-03 0.647E-02
   0.170E+03 0.208E+02 0.663E+01   -.187E+03 -.219E+02 -.772E+01   0.177E+02 0.108E+01 0.109E+01   -.170E-02 0.127E-02 -.659E-02
   0.241E+02 -.539E+02 0.391E+02   -.186E+02 0.721E+02 -.396E+02   -.542E+01 -.181E+02 0.468E+00   -.281E-02 -.145E-03 0.210E-01
   0.526E+02 0.555E+02 -.335E+01   -.497E+02 -.592E+02 0.478E+01   -.284E+01 0.370E+01 -.141E+01   -.125E-02 -.166E-02 -.241E-01
   -.256E+02 -.710E+02 0.269E+02   0.303E+02 0.754E+02 -.253E+02   -.465E+01 -.433E+01 -.159E+01   -.166E-03 0.224E-02 -.106E-01
   -.169E+03 -.206E+02 -.649E+01   0.187E+03 0.216E+02 0.760E+01   -.177E+02 -.103E+01 -.109E+01   -.438E-02 -.264E-03 -.637E-02
   -.241E+02 0.540E+02 -.391E+02   0.186E+02 -.721E+02 0.396E+02   0.542E+01 0.182E+02 -.471E+00   0.108E-02 -.691E-03 -.190E-01
   -.526E+02 -.554E+02 0.337E+01   0.498E+02 0.592E+02 -.481E+01   0.284E+01 -.370E+01 0.141E+01   0.345E-02 0.315E-03 0.265E-01
   0.977E+02 0.155E+02 -.104E+01   -.976E+02 -.158E+02 0.151E+01   -.694E-01 0.251E+00 -.451E+00   -.278E-02 -.426E-02 -.207E-01
   0.791E+01 0.291E+02 -.744E+01   -.868E+01 -.293E+02 0.695E+01   0.794E+00 0.158E+00 0.506E+00   -.159E-02 0.142E-02 -.243E-01
   0.163E+02 0.964E+02 -.353E+01   -.173E+02 -.967E+02 0.329E+01   0.106E+01 0.284E+00 0.229E+00   -.261E-03 -.576E-02 0.914E-02
   0.101E+03 0.682E+01 0.201E+02   -.101E+03 -.770E+01 -.198E+02   0.320E+00 0.869E+00 -.289E+00   0.268E-03 0.168E-02 -.106E-01
   -.977E+02 -.154E+02 0.968E+00   0.976E+02 0.157E+02 -.142E+01   0.753E-01 -.250E+00 0.455E+00   0.415E-02 0.936E-03 -.190E-03
   -.794E+01 -.291E+02 0.733E+01   0.870E+01 0.293E+02 -.683E+01   -.796E+00 -.155E+00 -.507E+00   0.183E-02 0.103E-02 0.117E-01
   -.163E+02 -.964E+02 0.346E+01   0.174E+02 0.967E+02 -.320E+01   -.106E+01 -.283E+00 -.229E+00   0.822E-03 0.668E-02 -.268E-01
   -.101E+03 -.664E+01 -.202E+02   0.101E+03 0.752E+01 0.199E+02   -.329E+00 -.868E+00 0.297E+00   0.716E-02 -.387E-02 -.246E-01
   0.973E+02 0.159E+02 -.896E+00   -.972E+02 -.161E+02 0.133E+01   -.477E-01 0.238E+00 -.438E+00   0.479E-02 -.255E-02 0.284E-01
   0.819E+01 0.287E+02 -.721E+01   -.896E+01 -.289E+02 0.668E+01   0.791E+00 0.169E+00 0.499E+00   -.635E-03 -.309E-02 0.279E-01
   0.164E+02 0.964E+02 -.354E+01   -.174E+02 -.967E+02 0.332E+01   0.104E+01 0.297E+00 0.197E+00   0.242E-03 -.167E-02 -.118E-01
   0.101E+03 0.667E+01 0.201E+02   -.101E+03 -.755E+01 -.199E+02   0.331E+00 0.867E+00 -.297E+00   -.884E-02 0.219E-02 0.555E-02
   -.973E+02 -.159E+02 0.100E+01   0.973E+02 0.161E+02 -.145E+01   0.447E-01 -.232E+00 0.431E+00   -.104E-02 0.358E-02 -.147E-01
   -.814E+01 -.288E+02 0.734E+01   0.890E+01 0.289E+02 -.682E+01   -.792E+00 -.169E+00 -.501E+00   0.914E-03 -.213E-02 -.110E-01
   -.164E+02 -.964E+02 0.367E+01   0.175E+02 0.967E+02 -.347E+01   -.104E+01 -.298E+00 -.200E+00   -.130E-02 -.272E-02 0.306E-01
   -.101E+03 -.683E+01 -.200E+02   0.101E+03 0.771E+01 0.197E+02   -.320E+00 -.870E+00 0.292E+00   0.136E-02 0.111E-03 0.290E-01
 -----------------------------------------------------------------------------------------------
   -.148E-01 0.261E-01 0.182E-01   -.483E-12 0.000E+00 -.163E-12   0.131E-01 -.168E-01 -.289E-01   0.892E-02 -.712E-02 -.475E-03
 
 
 POSITION                                       TOTAL-FORCE (eV/Angst)
 -----------------------------------------------------------------------------------
      4.43143      0.34250      7.54275         0.001189      0.002566     -0.002108
      6.19999      5.36943      6.87744        -0.002374     -0.004551      0.004751
      9.95372      5.47609     10.60590        -0.006031      0.000615     -0.008930
      1.20941      0.20152     11.11813         0.005530      0.000382     -0.003239
      1.03185      0.82857      3.92445         0.001253      0.000426     -0.007811
     10.00852      5.85337      3.25871        -0.003931     -0.001546      0.010044
      2.63313      3.81338      7.39457         0.007272      0.000448      0.008782
      7.39595      2.81749      6.88219        -0.002958      0.001186      0.002387
      7.85484      4.54314      9.06043         0.000334     -0.003641     -0.004056
      8.22016      4.72743      1.74967        -0.011360     -0.003117     -0.004182
      8.45981      5.07312      5.40023         0.002462     -0.001246     -0.009566
      8.43647      4.80460     12.67426         0.005927      0.008258      0.007382
      6.58381      1.65412      1.73931         0.001222     -0.004100      0.009785
      6.21539      1.47654      9.05049         0.008593     -0.002689     -0.001427
      4.12709      4.21690     12.60067        -0.000717     -0.000511      0.004346
      4.15044      4.48486      5.32650        -0.004580     -0.009528     -0.005455
      3.05254      3.52891      0.34129         0.004512      0.001480     -0.008258
      7.57415      2.18987     14.07631         0.001937     -0.001184      0.005616
      4.59873      2.38251      3.40502        -0.006793      0.000440     -0.006912
      7.04142      3.37992      3.91509        -0.000516      0.005960      0.001170
      6.38696      3.91997     11.12317         0.000420      0.002304     -0.002059
      4.17402      2.67657     10.45830         0.000268     -0.002152      0.002753
      4.48120      0.72931      0.19527         0.004583     -0.002193      0.009234
      5.54615      5.90879     14.08639        -0.002544     -0.005978     -0.004132
      2.49598      1.45770      1.86070        -0.000355      0.003573     -0.002992
      2.38988      1.54278      8.95012        -0.012663      0.001913     -0.001786
      2.62770      1.89480     12.60125         0.002166      0.001453      0.000026
      3.08265      1.71089      5.47482         0.006421     -0.003582      0.003370
      4.73187      4.74614      8.94033         0.002239      0.003159      0.004745
      4.84117      4.65460      1.85062         0.008604      0.001827      0.009056
      5.97825      1.12345      5.39951        -0.003375     -0.000961     -0.000420
      5.52298      1.30799     12.52594        -0.005685      0.003562     -0.005120
      3.22765      1.91781      7.33495        -0.006763      0.034118      0.006223
      7.97186      4.63357      7.17035         0.025436      0.015376     -0.003928
      8.07896      4.75592     10.87764        -0.005192      0.000922     -0.004319
      8.54674      4.49606      3.60606        -0.030917     -0.003166      0.003268
      5.37771      1.10120     10.66567         0.012825     -0.034825     -0.001312
      4.61505      4.65589     10.83041        -0.028807     -0.011690      0.002263
      4.50800      4.53330      7.12312         0.007357      0.001135      0.004120
      5.89068      1.70252      7.19282         0.019042      0.006921      0.003929
      9.05621      5.10459      0.13378         0.015310      0.013675      0.024397
      2.13876      1.45563     14.37137         0.022996      0.019398     -0.008613
      2.72308      1.66521      3.67849        -0.030342      0.017660     -0.035474
      2.71479      1.31655     10.80766        -0.019024     -0.010104     -0.004016
      4.00473      4.27762      3.46651        -0.017460     -0.007742     -0.032412
      6.46737      1.56269      3.62938        -0.026015     -0.019432      0.007188
      5.88279      1.35348     14.32227         0.029965     -0.017910      0.031911
      4.04059      4.79283     14.39499         0.030540      0.003087      0.001783
 -----------------------------------------------------------------------------------
    total drift:                                0.007281      0.002169     -0.011200


--------------------------------------------------------------------------------------------------------



  FREE ENERGIE OF THE ION-ELECTRON SYSTEM (eV)
  ---------------------------------------------------
  free  energy   TOTEN  =      -321.05163203 eV

  energy  without entropy=     -321.01327304  energy(sigma->0) =     -321.03245254
 


--------------------------------------------------------------------------------------------------------


    POTLOK:  cpu time    2.7707: real time    2.7713


--------------------------------------------------------------------------------------------------------


 stress matrix after NEB project (eV)
     -0.13674     -0.05903      0.13916
     -0.05900     -0.13619      0.05894
      0.13914      0.05895     -0.05005
  FORCES: max atom, RMS     0.049909    0.019912
  FORCE total and by dimension    0.137953    0.035474
  Stress total and by dimension    0.303959    0.139158


--------------------------------------------------------------------------------------------------------


  
 reached required accuracy - stopping structural energy minimisation
 writing wavefunctions
     LOOP+:  cpu time  251.1152: real time  254.6824
    4ORBIT:  cpu time    0.0000: real time    0.0000
 


 total charge     
 
# of ion       s       p       d       tot
------------------------------------------
    1        1.564   3.416   0.000   4.980
    2        1.576   3.378   0.000   4.954
    3        1.558   3.428   0.000   4.986
    4        1.571   3.378   0.000   4.949
    5        1.576   3.378   0.000   4.954
    6        1.564   3.416   0.000   4.980
    7        1.558   3.428   0.000   4.986
    8        1.571   3.378   0.000   4.949
    9        1.568   3.418   0.000   4.986
   10        1.577   3.379   0.000   4.956
   11        1.576   3.388   0.000   4.964
   12        1.571   3.403   0.000   4.975
   13        1.568   3.417   0.000   4.986
   14        1.577   3.379   0.000   4.956
   15        1.576   3.389   0.000   4.964
   16        1.571   3.403   0.000   4.975
   17        1.564   3.416   0.000   4.980
   18        1.576   3.379   0.000   4.954
   19        1.558   3.428   0.000   4.986
   20        1.571   3.377   0.000   4.949
   21        1.576   3.378   0.000   4.954
   22        1.564   3.416   0.000   4.980
   23        1.558   3.428   0.000   4.986
   24        1.571   3.377   0.000   4.949
   25        1.568   3.417   0.000   4.986
   26        1.577   3.379   0.000   4.956
   27        1.576   3.388   0.000   4.964
   28        1.571   3.403   0.000   4.975
   29        1.568   3.418   0.000   4.986
   30        1.577   3.379   0.000   4.956
   31        1.576   3.388   0.000   4.964
   32        1.571   3.403   0.000   4.975
   33        0.642   0.786   6.842   8.270
   34        0.649   0.914   6.753   8.316
   35        0.695   0.806   6.838   8.339
   36        0.653   0.769   6.836   8.258
   37        0.642   0.786   6.842   8.270
   38        0.649   0.914   6.754   8.317
   39        0.695   0.806   6.838   8.339
   40        0.653   0.769   6.837   8.259
   41        0.642   0.786   6.842   8.269
   42        0.649   0.914   6.753   8.316
   43        0.695   0.806   6.837   8.339
   44        0.653   0.769   6.837   8.260
   45        0.642   0.786   6.842   8.269
   46        0.649   0.914   6.753   8.316
   47        0.695   0.806   6.838   8.339
   48        0.653   0.769   6.836   8.258
--------------------------------------------------
tot         60.801 121.855 109.078 291.735
 


 magnetization (x)
 
# of ion       s       p       d       tot
------------------------------------------
    1        0.000   0.000   0.000   0.000
    2        0.000   0.000   0.000   0.000
    3        0.000   0.000   0.000   0.000
    4        0.000   0.001   0.000   0.001
    5        0.000   0.000   0.000   0.000
    6        0.000   0.000   0.000   0.000
    7        0.000   0.000   0.000   0.000
    8        0.000   0.001   0.000   0.001
    9       -0.000  -0.000   0.000  -0.000
   10        0.000  -0.000   0.000  -0.000
   11        0.000  -0.000   0.000  -0.000
   12        0.000   0.000   0.000   0.000
   13       -0.000  -0.000   0.000  -0.000
   14        0.000  -0.000   0.000  -0.000
   15        0.000   0.000   0.000   0.000
   16        0.000   0.000   0.000   0.000
   17        0.000   0.000   0.000   0.000
   18        0.000   0.000   0.000   0.000
   19        0.000   0.000   0.000   0.000
   20        0.000   0.001   0.000   0.001
   21        0.000   0.000   0.000   0.000
   22        0.000   0.000   0.000   0.000
   23        0.000   0.000   0.000   0.000
   24        0.000   0.001   0.000   0.001
   25       -0.000  -0.000   0.000  -0.000
   26        0.000  -0.000   0.000  -0.000
   27        0.000   0.000   0.000   0.000
   28        0.000   0.000   0.000   0.000
   29       -0.000  -0.000   0.000  -0.000
   30        0.000  -0.000   0.000  -0.000
   31        0.000   0.000   0.000   0.000
   32        0.000   0.000   0.000   0.000
   33        0.000   0.000   0.003   0.003
   34        0.000   0.000   0.001   0.001
   35       -0.000   0.000  -0.001  -0.001
   36        0.000   0.000   0.001   0.001
   37        0.000   0.000   0.003   0.003
   38        0.000   0.000   0.001   0.001
   39       -0.000   0.000  -0.001  -0.001
   40        0.000   0.000   0.001   0.001
   41        0.000   0.000   0.002   0.003
   42        0.000   0.000   0.001   0.001
   43        0.000   0.000  -0.001  -0.001
   44        0.000   0.000   0.001   0.001
   45        0.000   0.000   0.003   0.003
   46        0.000   0.000   0.001   0.001
   47        0.000   0.000  -0.001  -0.001
   48        0.000   0.000   0.001   0.001
--------------------------------------------------
tot          0.001   0.006   0.017   0.023
 

 total amount of memory used by VASP MPI-rank0    56442. kBytes
=======================================================================

   base      :      30000. kBytes
   nonlr-proj:       8682. kBytes
   fftplans  :       2118. kBytes
   grid      :       5536. kBytes
   one-center:        155. kBytes
   wavefun   :       9951. kBytes
 
  
  
 General timing and accounting informations for this job:
 ========================================================
  
                  Total CPU time used (sec):      287.206
                            User time (sec):      272.399
                          System time (sec):       14.807
                         Elapsed time (sec):      292.997
  
                   Maximum memory used (kb):      246044.
                   Average memory used (kb):           0.
  
                          Minor page faults:        41443
                          Major page faults:          429
                 Voluntary context switches:         3539
