 vasp.5.4.4.18Apr17-6-g9f103f2a35 (build Aug 21 2019 12:36:18) complex          
  
 executed on IFC18.0.1.163_CrayMP date 2019.08.29  00:24:59
 running on  330 total cores
 distrk:  each k-point on   66 cores,    5 groups
 distr:  one band on NCORES_PER_BAND=  11 cores,    6 groups


--------------------------------------------------------------------------------------------------------


 INCAR:
 POTCAR:    PAW_PBE O 08Apr2002                   
 POTCAR:    PAW_PBE Ir 06Sep2000                  

 ----------------------------------------------------------------------------- 
|                                                                             |
|           W    W    AA    RRRRR   N    N  II  N    N   GGGG   !!!           |
|           W    W   A  A   R    R  NN   N  II  NN   N  G    G  !!!           |
|           W    W  A    A  R    R  N N  N  II  N N  N  G       !!!           |
|           W WW W  AAAAAA  RRRRR   N  N N  II  N  N N  G  GGG   !            |
|           WW  WW  A    A  R   R   N   NN  II  N   NN  G    G                |
|           W    W  A    A  R    R  N    N  II  N    N   GGGG   !!!           |
|                                                                             |
|      You have enabled k-point parallelism (KPAR>1).                         |
|      This developmental code was originally  written by Paul Kent at ORNL,  |
|      and carefully double checked in Vienna.                                |
|      GW as well as linear response parallelism added by Martijn Marsman     |
|      and Georg Kresse.                                                      |
|      Carefully verify results versus KPAR=1.                                |
|      Report problems to Paul Kent and Vienna.                               |
|                                                                             |
 ----------------------------------------------------------------------------- 

 POTCAR:    PAW_PBE O 08Apr2002                   
   VRHFIN =O: s2p4                                                              
   LEXCH  = PE                                                                  
   EATOM  =   432.3788 eV,   31.7789 Ry                                         
                                                                                
   TITEL  = PAW_PBE O 08Apr2002                                                 
   LULTRA =        F    use ultrasoft PP ?                                      
   IUNSCR =        1    unscreen: 0-lin 1-nonlin 2-no                           
   RPACOR =    1.200    partial core radius                                     
   POMASS =   16.000; ZVAL   =    6.000    mass and valenz                      
   RCORE  =    1.520    outmost cutoff radius                                   
   RWIGS  =    1.550; RWIGS  =    0.820    wigner-seitz radius (au A)           
   ENMAX  =  400.000; ENMIN  =  300.000 eV                                      
   ICORE  =        2    local potential                                         
   LCOR   =        T    correct aug charges                                     
   LPAW   =        T    paw PP                                                  
   EAUG   =  605.392                                                            
   DEXC   =    0.000                                                            
   RMAX   =    1.553    core radius for proj-oper                               
   RAUG   =    1.300    factor for augmentation sphere                          
   RDEP   =    1.550    radius for radial grids                                 
   RDEPT  =    1.329    core radius for aug-charge                              
                                                                                
   Atomic configuration                                                         
    4 entries                                                                   
     n  l   j            E        occ.                                          
     1  0  0.50      -514.6923   2.0000                                         
     2  0  0.50       -23.9615   2.0000                                         
     2  1  0.50        -9.0305   4.0000                                         
     3  2  1.50        -9.5241   0.0000                                         
   Description                                                                  
     l       E           TYP  RCUT    TYP  RCUT                                 
     0    -23.9615318     23  1.200                                             
     0     -9.5240782     23  1.200                                             
     1     -9.0304911     23  1.520                                             
     1      8.1634956     23  1.520                                             
     2     -9.5240782      7  1.500                                             
  local pseudopotential read in
  partial core-charges read in
  partial kinetic energy density read in
  kinetic energy density of atom read in
  atomic valenz-charges read in
  non local Contribution for L=           0  read in
    real space projection operators read in
  non local Contribution for L=           0  read in
    real space projection operators read in
  non local Contribution for L=           1  read in
    real space projection operators read in
  non local Contribution for L=           1  read in
    real space projection operators read in
    PAW grid and wavefunctions read in
 
   number of l-projection  operators is LMAX  =           4
   number of lm-projection operators is LMMAX =           8
 
 POTCAR:    PAW_PBE Ir 06Sep2000                  
   VRHFIN =Ir: s1d8                                                             
   LEXCH  = PE                                                                  
   EATOM  =   560.1833 eV,   41.1723 Ry                                         
                                                                                
   TITEL  = PAW_PBE Ir 06Sep2000                                                
   LULTRA =        F    use ultrasoft PP ?                                      
   IUNSCR =        1    unscreen: 0-lin 1-nonlin 2-no                           
   RPACOR =    2.250    partial core radius                                     
   POMASS =  192.220; ZVAL   =    9.000    mass and valenz                      
   RCORE  =    2.600    outmost cutoff radius                                   
   RWIGS  =    2.690; RWIGS  =    1.423    wigner-seitz radius (au A)           
   ENMAX  =  210.864; ENMIN  =  158.148 eV                                      
   RCLOC  =    1.857    cutoff for local pot                                    
   LCOR   =        T    correct aug charges                                     
   LPAW   =        T    paw PP                                                  
   EAUG   =  318.962                                                            
   DEXC   =    0.000                                                            
   RMAX   =    2.667    core radius for proj-oper                               
   RAUG   =    1.300    factor for augmentation sphere                          
   RDEP   =    2.748    radius for radial grids                                 
   RDEPT  =    2.300    core radius for aug-charge                              
                                                                                
   Atomic configuration                                                         
   16 entries                                                                   
     n  l   j            E        occ.                                          
     1  0  0.50    -76100.0449   2.0000                                         
     2  0  0.50    -13308.1683   2.0000                                         
     2  1  1.50    -11558.0021   6.0000                                         
     3  0  0.50     -3110.7274   2.0000                                         
     3  1  1.50     -2599.2109   6.0000                                         
     3  2  2.50     -2037.1515  10.0000                                         
     4  0  0.50      -661.6001   2.0000                                         
     4  1  1.50      -493.8981   6.0000                                         
     4  2  2.50      -288.1909  10.0000                                         
     4  3  3.50       -59.5718  14.0000                                         
     5  0  0.50       -95.3879   2.0000                                         
     5  1  1.50       -52.2747   6.0000                                         
     5  2  2.50        -5.4180   8.0000                                         
     6  0  0.50        -5.5479   1.0000                                         
     6  1  1.50        -6.8029   0.0000                                         
     5  3  2.50        -1.3606   0.0000                                         
   Description                                                                  
     l       E           TYP  RCUT    TYP  RCUT                                 
     2     -5.4179967     23  2.600                                             
     2     -6.7785793     23  2.600                                             
     0     -5.5478636     23  2.600                                             
     0      2.2542272     23  2.600                                             
     1     -2.7211652     23  2.600                                             
     1     20.4087390     23  2.600                                             
  local pseudopotential read in
  partial core-charges read in
  partial kinetic energy density read in
  atomic valenz-charges read in
  non local Contribution for L=           2  read in
    real space projection operators read in
  non local Contribution for L=           2  read in
    real space projection operators read in
  non local Contribution for L=           0  read in
    real space projection operators read in
  non local Contribution for L=           0  read in
    real space projection operators read in
  non local Contribution for L=           1  read in
    real space projection operators read in
  non local Contribution for L=           1  read in
    real space projection operators read in
    PAW grid and wavefunctions read in
 
   number of l-projection  operators is LMAX  =           6
   number of lm-projection operators is LMMAX =          18
 
 Optimization of the real space projectors (new method)

 maximal supplied QI-value         = 24.76
 optimisation between [QCUT,QGAM] = [ 12.38, 31.19] = [ 42.90,272.45] Ry 
 Optimized for a Real-space Cutoff    0.88 Angstroem

   l    n(q)    QCUT    max X(q) W(low)/X(q) W(high)/X(q)  e(spline) 
   0      8    12.378    20.381    0.23E-03    0.15E-03    0.14E-06
   0      8    12.378    15.268    0.25E-03    0.16E-03    0.15E-06
   1      8    12.378     5.964    0.24E-03    0.11E-03    0.16E-06
   1      8    12.378     5.382    0.21E-03    0.84E-04    0.13E-06
 Optimization of the real space projectors (new method)

 maximal supplied QI-value         = 14.36
 optimisation between [QCUT,QGAM] = [ 12.49, 31.31] = [ 43.72,274.50] Ry 
 Optimized for a Real-space Cutoff    1.40 Angstroem

   l    n(q)    QCUT    max X(q) W(low)/X(q) W(high)/X(q)  e(spline) 
   2     12    12.495   134.116    0.29E-03    0.64E-03    0.30E-04
   2     12    12.495   130.192    0.29E-03    0.64E-03    0.30E-04
   0     13    12.495    60.310    0.11E-03    0.19E-03    0.31E-04
   0     13    12.495    39.218    0.10E-03    0.18E-03    0.29E-04
   1     13    12.495    18.439    0.29E-03    0.21E-04    0.43E-04
   1     13    12.495    12.760    0.22E-03    0.16E-04    0.33E-04
  PAW_PBE O 08Apr2002                   :
 energy of atom  1       EATOM= -432.3788
 kinetic energy error for atom=    0.0168 (will be added to EATOM!!)
  PAW_PBE Ir 06Sep2000                  :
 energy of atom  2       EATOM= -560.1833
 kinetic energy error for atom=    0.0008 (will be added to EATOM!!)
 
 
 POSCAR:  O Ir                                   
  positions in cartesian coordinates
  No initial velocities read in
 exchange correlation table for  LEXCH =        8
   RHO(1)=    0.500       N(1)  =     2000
   RHO(2)=  100.500       N(2)  =     4000

 VTST: version 3.2, (02/03/18)

 CHAIN: initializing optimizer
 
 OPT: Using VASP Conjugate-Gradient optimizer
 CHAIN: Read ICHAIN            0
 
 POSCAR:  O Ir                                   
  positions in cartesian coordinates
  No initial velocities read in
 


--------------------------------------------------------------------------------------------------------


 ion  position               nearest neighbor table
   1  0.745  0.245  0.508-  13 1.84  13 2.06
   2  0.255  0.755  0.508-  14 1.84  14 2.06
   3  0.245  0.255  0.492-  15 1.84  15 2.06
   4  0.755  0.745  0.492-  16 1.84  16 2.06
   5  0.504  0.750  0.001-  14 1.89  16 1.98
   6  0.496  0.250  0.001-  13 1.89  15 1.98
   7  0.750  0.496  0.999-  16 1.89  13 1.98
   8  0.250  0.504  0.999-  15 1.89  14 1.98
   9  0.996  0.250  0.999-  15 1.89  13 1.98
  10  0.004  0.750  0.999-  16 1.89  14 1.98
  11  0.750  0.996  0.001-  13 1.89  16 1.98
  12  0.250  0.004  0.001-  14 1.89  15 1.98
  13  0.740  0.240  0.036-   1 1.84   6 1.89  11 1.89   9 1.98   7 1.98   1 2.06
  14  0.260  0.760  0.036-   2 1.84   5 1.89  12 1.89  10 1.98   8 1.98   2 2.06
  15  0.240  0.260  0.964-   3 1.84   8 1.89   9 1.89   6 1.98  12 1.98   3 2.06
  16  0.760  0.740  0.964-   4 1.84   7 1.89  10 1.89   5 1.98  11 1.98   4 2.06
 
  LATTYP: Found a simple tetragonal cell.
 ALAT       =     7.7043600000
 C/A-ratio  =     0.5060186699
  
  Lattice vectors:
  
 A1 = (   7.7043600000,   0.0000000000,   0.0000000000)
 A2 = (   0.0000000000,   7.7043600000,   0.0000000000)
 A3 = (   0.0000000000,   0.0000000000,   3.8985500000)


Analysis of symmetry for initial positions (statically):
=====================================================================
 Subroutine PRICEL returns:
 Original cell was already a primitive cell.
 

 Routine SETGRP: Setting up the symmetry group for a 
 simple tetragonal supercell.


 Subroutine GETGRP returns: Found  8 space group operations
 (whereof  4 operations were pure point group operations)
 out of a pool of 16 trial point group operations.


The static configuration has the point symmetry S_4 .
 The point group associated with its full space group is D_2d.


Analysis of symmetry for dynamics (positions and initial velocities):
=====================================================================
 Subroutine PRICEL returns:
 Original cell was already a primitive cell.
 

 Routine SETGRP: Setting up the symmetry group for a 
 simple tetragonal supercell.


 Subroutine GETGRP returns: Found  8 space group operations
 (whereof  4 operations were pure point group operations)
 out of a pool of 16 trial point group operations.


The dynamic configuration has the point symmetry S_4 .
 The point group associated with its full space group is D_2d.


Analysis of structural, dynamic, and magnetic symmetry:
=====================================================================
 Subroutine PRICEL returns:
 Original cell was already a primitive cell.
 

 Routine SETGRP: Setting up the symmetry group for a 
 simple tetragonal supercell.


 Subroutine GETGRP returns: Found  8 space group operations
 (whereof  4 operations were pure point group operations)
 out of a pool of 16 trial point group operations.


The magnetic configuration has the point symmetry S_4 .
 The point group associated with its full space group is D_2d.


 Subroutine INISYM returns: Found  8 space group operations
 (whereof  4 operations are pure point group operations),
 and found     1 'primitive' translations

 
 
 KPOINTS: KPOINTS created by Atomic Simulation Env

Automatic generation of k-mesh.
Space group operators:
 irot       det(A)        alpha          n_x          n_y          n_z        tau_x        tau_y        tau_z
    1     1.000000     0.000000     1.000000     0.000000     0.000000     0.000000     0.000000     0.000000
    2    -1.000000    90.000000     0.000000     0.000000    -1.000000     0.000000     0.000000     0.000000
    3     1.000000   180.000000     0.000000     0.000000     1.000000     0.000000     0.000000     0.000000
    4    -1.000000    90.000000     0.000000     0.000000     1.000000     0.000000     0.000000     0.000000
    5     1.000000   180.000000     0.000000     1.000000     0.000000     0.500000     0.500000     0.000000
    6    -1.000000   180.000000     0.707107     0.707107     0.000000     0.500000     0.500000     0.000000
    7     1.000000   180.000000     1.000000     0.000000     0.000000     0.500000     0.500000     0.000000
    8    -1.000000   180.000000     0.707107    -0.707107     0.000000     0.500000     0.500000     0.000000
 
 Subroutine IBZKPT returns following result:
 ===========================================
 
 Found      9 irreducible k-points:
 
 Following reciprocal coordinates:
            Coordinates               Weight
  0.000000  0.000000  0.000000      1.000000
  0.500000  0.000000  0.000000      2.000000
  0.500000  0.500000  0.000000      1.000000
  0.000000  0.000000  0.200000      2.000000
  0.500000  0.000000  0.200000      4.000000
  0.500000  0.500000  0.200000      2.000000
  0.000000  0.000000  0.400000      2.000000
  0.500000  0.000000  0.400000      4.000000
  0.500000  0.500000  0.400000      2.000000
 
 Following cartesian coordinates:
            Coordinates               Weight
  0.000000  0.000000  0.000000      1.000000
  0.064898  0.000000  0.000000      2.000000
  0.064898  0.064898  0.000000      1.000000
  0.000000  0.000000  0.051301      2.000000
  0.064898  0.000000  0.051301      4.000000
  0.064898  0.064898  0.051301      2.000000
  0.000000  0.000000  0.102602      2.000000
  0.064898  0.000000  0.102602      4.000000
  0.064898  0.064898  0.102602      2.000000
 


--------------------------------------------------------------------------------------------------------




 Dimension of arrays:
   k-points           NKPTS =      9   k-points in BZ     NKDIM =      9   number of bands    NBANDS=     72
   number of dos      NEDOS =    301   number of ions     NIONS =     16
   non local maximal  LDIM  =      6   non local SUM 2l+1 LMDIM =     18
   total plane-waves  NPLWV = 131072
   max r-space proj   IRMAX =   6629   max aug-charges    IRDMAX=  11774
   dimension x,y,z NGX =    64 NGY =   64 NGZ =   32
   dimension x,y,z NGXF=    84 NGYF=   84 NGZF=   42
   support grid    NGXF=    84 NGYF=   84 NGZF=   42
   ions per type =              12   4
   NGX,Y,Z   is equivalent  to a cutoff of  13.81, 13.81, 13.65 a.u.
   NGXF,Y,Z  is equivalent  to a cutoff of  18.13, 18.13, 17.91 a.u.

 SYSTEM =  unknown system                          
 POSCAR =   O Ir                                   

 Startparameter for this run:
   NWRITE =      2    write-flag & timer
   PREC   = high      normal or accurate (medium, high low for compatibility)
   ISTART =      0    job   : 0-new  1-cont  2-samecut
   ICHARG =      2    charge: 1-file 2-atom 10-const
   ISPIN  =      2    spin polarized calculation?
   LNONCOLLINEAR =      F non collinear calculations
   LSORBIT =      F    spin-orbit coupling
   INIWAV =      1    electr: 0-lowe 1-rand  2-diag
   LASPH  =      T    aspherical Exc in radial PAW
   METAGGA=      F    non-selfconsistent MetaGGA calc.

 Electronic Relaxation 1
   ENCUT  =  600.0 eV  44.10 Ry    6.64 a.u.  15.39 15.39  7.79*2*pi/ulx,y,z
   ENINI  =  600.0     initial cutoff
   ENAUG  =  605.4 eV  augmentation charge cutoff
   NELM   =    220;   NELMIN=  2; NELMDL= -5     # of ELM steps 
   EDIFF  = 0.1E-05   stopping-criterion for ELM
   LREAL  =      T    real-space projection
   NLSPLINE    = F    spline interpolate recip. space projectors
   LCOMPAT=      F    compatible to vasp.4.4
   GGA_COMPAT  = T    GGA compatible to vasp.4.4-vasp.4.6
   LMAXPAW     = -100 max onsite density
   LMAXMIX     =    6 max onsite mixed and CHGCAR
   VOSKOWN=      0    Vosko Wilk Nusair interpolation
   ROPT   =   -0.00040  -0.00040
 Ionic relaxation
   EDIFFG = 0.5E-02   stopping-criterion for IOM
   NSW    =    150    number of steps for IOM
   NBLOCK =      1;   KBLOCK =    150    inner block; outer block 
   IBRION =      2    ionic relax: 0-MD 1-quasi-New 2-CG
   NFREE  =      1    steps in history (QN), initial steepest desc. (CG)
   ISIF   =      7    stress and relaxation
   IWAVPR =     11    prediction:  0-non 1-charg 2-wave 3-comb
   ISYM   =      2    0-nonsym 1-usesym 2-fastsym
   LCORR  =      T    Harris-Foulkes like correction to forces

   POTIM  = 0.0300    time-step for ionic-motion
   TEIN   =    0.0    initial temperature
   TEBEG  =    0.0;   TEEND  =   0.0 temperature during run
   SMASS  =  -3.00    Nose mass-parameter (am)
   estimated Nose-frequenzy (Omega)   =  0.10E-29 period in steps =****** mass=  -0.136E-26a.u.
   SCALEE = 1.0000    scale energy and forces
   NPACO  =    256;   APACO  = 16.0  distance and # of slots for P.C.
   PSTRESS=    0.0 pullay stress

  Mass of Ions in am
   POMASS =  16.00192.22
  Ionic Valenz
   ZVAL   =   6.00  9.00
  Atomic Wigner-Seitz radii
   RWIGS  =  -1.00 -1.00
  virtual crystal weights 
   VCA    =   1.00  1.00
   NELECT =     108.0000    total number of electrons
   NUPDOWN=      -1.0000    fix difference up-down

 DOS related values:
   EMIN   =  10.00;   EMAX   =-10.00  energy-range for DOS
   EFERMI =   0.00
   ISMEAR =     0;   SIGMA  =   0.05  broadening in eV -4-tet -1-fermi 0-gaus

 Electronic relaxation 2 (details)
   IALGO  =     68    algorithm
   LDIAG  =      T    sub-space diagonalisation (order eigenvalues)
   LSUBROT=      F    optimize rotation matrix (better conditioning)
   TURBO    =      0    0=normal 1=particle mesh
   IRESTART =      0    0=no restart 2=restart with 2 vectors
   NREBOOT  =      0    no. of reboots
   NMIN     =      0    reboot dimension
   EREF     =   0.00    reference energy to select bands
   IMIX   =      4    mixing-type and parameters
     AMIX     =   0.20;   BMIX     =  0.00
     AMIX_MAG =   0.10;   BMIX_MAG =  0.00
     AMIN     =   0.10
     WC   =   100.;   INIMIX=   0;  MIXPRE=   1;  MAXMIX= -45

 Intra band minimization:
   WEIMIN = 0.0010     energy-eigenvalue tresh-hold
   EBREAK =  0.35E-08  absolut break condition
   DEPER  =   0.30     relativ break condition  

   TIME   =   0.40     timestep for ELM

  volume/ion in A,a.u.               =      14.46        97.60
  Fermi-wavevector in a.u.,A,eV,Ry     =   1.269864  2.399696 21.940149  1.612555
  Thomas-Fermi vector in A             =   2.402883
 
 Write flags
   LWAVE        =      T    write WAVECAR
   LDOWNSAMPLE  =      F    k-point downsampling of WAVECAR
   LCHARG       =      T    write CHGCAR
   LVTOT        =      F    write LOCPOT, total local potential
   LVHAR        =      F    write LOCPOT, Hartree potential only
   LELF         =      F    write electronic localiz. function (ELF)
   LORBIT       =     11    0 simple, 1 ext, 2 COOP (PROOUT), +10 PAW based schemes


 Dipole corrections
   LMONO  =      F    monopole corrections only (constant potential shift)
   LDIPOL =      F    correct potential (dipole corrections)
   IDIPOL =      0    1-x, 2-y, 3-z, 4-all directions 
   EPSILON=  1.0000000 bulk dielectric constant

 Exchange correlation treatment:
   GGA     =    PE    GGA type
   LEXCH   =     8    internal setting for exchange type
   VOSKOWN=      0    Vosko Wilk Nusair interpolation
   LHFCALC =     F    Hartree Fock is set to
   LHFONE  =     F    Hartree Fock one center treatment
   AEXX    =    0.0000 exact exchange contribution

 Linear response parameters
   LEPSILON=     F    determine dielectric tensor
   LRPA    =     F    only Hartree local field effects (RPA)
   LNABLA  =     F    use nabla operator in PAW spheres
   LVEL    =     F    velocity operator in full k-point grid
   LINTERFAST=   F  fast interpolation
   KINTER  =     0    interpolate to denser k-point grid
   CSHIFT  =0.1000    complex shift for real part using Kramers Kronig
   OMEGAMAX=  -1.0    maximum frequency
   DEG_THRESHOLD= 0.2000000E-02 threshold for treating states as degnerate
   RTIME   =   -0.100 relaxation time in fs
  (WPLASMAI=    0.000 imaginary part of plasma frequency in eV, 0.658/RTIME)
   DFIELD  = 0.0000000 0.0000000 0.0000000 field for delta impulse in time
 
 Orbital magnetization related:
   ORBITALMAG=     F  switch on orbital magnetization
   LCHIMAG   =     F  perturbation theory with respect to B field
   DQ        =  0.001000  dq finite difference perturbation B field
   LLRAUG    =     F  two centre corrections for induced B field



--------------------------------------------------------------------------------------------------------


 conjugate gradient relaxation of ions
 charge density and potential will be updated during run
 spin polarized calculation
 RMM-DIIS sequential band-by-band and
  variant of blocked Davidson during initial phase
 perform sub-space diagonalisation
    before iterative eigenvector-optimisation
 modified Broyden-mixing scheme, WC =      100.0
 initial mixing is a simple linear mixing with ALPHA =  0.2000
 Hartree-type preconditioning will be used
 using additional bands           18
 real space projection scheme for non local part
 use partial core corrections
 calculate Harris-corrections to forces 
   (improved forces if not selfconsistent)
 use gradient corrections 
 use of overlap-Matrix (Vanderbilt PP)
 Gauss-broadening in eV      SIGMA  =   0.05


--------------------------------------------------------------------------------------------------------


  energy-cutoff  :      600.00
  volume of cell :      231.41
      direct lattice vectors                 reciprocal lattice vectors
     7.704360000  0.000000000  0.000000000     0.129796635  0.000000000  0.000000000
     0.000000000  7.704360000  0.000000000     0.000000000  0.129796635  0.000000000
     0.000000000  0.000000000  3.898550000     0.000000000  0.000000000  0.256505624

  length of vectors
     7.704360000  7.704360000  3.898550000     0.129796635  0.129796635  0.256505624


 
 k-points in units of 2pi/SCALE and weight: KPOINTS created by Atomic Simulation Env
   0.00000000  0.00000000  0.00000000       0.050
   0.06489832  0.00000000  0.00000000       0.100
   0.06489832  0.06489832  0.00000000       0.050
   0.00000000  0.00000000  0.05130112       0.100
   0.06489832  0.00000000  0.05130112       0.200
   0.06489832  0.06489832  0.05130112       0.100
   0.00000000  0.00000000  0.10260225       0.100
   0.06489832  0.00000000  0.10260225       0.200
   0.06489832  0.06489832  0.10260225       0.100
 
 k-points in reciprocal lattice and weights: KPOINTS created by Atomic Simulation Env
   0.00000000  0.00000000  0.00000000       0.050
   0.50000000  0.00000000  0.00000000       0.100
   0.50000000  0.50000000  0.00000000       0.050
   0.00000000  0.00000000  0.20000000       0.100
   0.50000000  0.00000000  0.20000000       0.200
   0.50000000  0.50000000  0.20000000       0.100
   0.00000000  0.00000000  0.40000000       0.100
   0.50000000  0.00000000  0.40000000       0.200
   0.50000000  0.50000000  0.40000000       0.100
 
 position of ions in fractional coordinates (direct lattice) 
   0.74456000  0.24456000  0.50774000
   0.25544000  0.75544000  0.50774000
   0.24456000  0.25544000  0.49226000
   0.75544000  0.74456000  0.49226000
   0.50420000  0.75017000  0.00113000
   0.49580000  0.24983000  0.00113000
   0.75017000  0.49580000  0.99887000
   0.24983000  0.50420000  0.99887000
   0.99580000  0.25017000  0.99887000
   0.00420000  0.74983000  0.99887000
   0.74983000  0.99580000  0.00113000
   0.25017000  0.00420000  0.00113000
   0.74017000  0.24017000  0.03588000
   0.25983000  0.75983000  0.03588000
   0.24017000  0.25983000  0.96412000
   0.75983000  0.74017000  0.96412000
 
 position of ions in cartesian coordinates  (Angst):
   5.73635828  1.88417828  1.97944978
   1.96800172  5.82018172  1.97944978
   1.88417828  1.96800172  1.91910022
   5.82018172  5.73635828  1.91910022
   3.88453831  5.77957974  0.00440536
   3.81982169  1.92478026  0.00440536
   5.77957974  3.81982169  3.89414464
   1.92478026  3.88453831  3.89414464
   7.67200169  1.92739974  3.89414464
   0.03235831  5.77696026  3.89414464
   5.77696026  7.67200169  0.00440536
   1.92739974  0.03235831  0.00440536
   5.70253614  1.85035614  0.13987997
   2.00182386  5.85400386  0.13987997
   1.85035614  2.00182386  3.75867003
   5.85400386  5.70253614  3.75867003
 


--------------------------------------------------------------------------------------------------------


 k-point  1 :   0.0000 0.0000 0.0000  plane waves:    7731
 k-point  2 :   0.5000 0.0000 0.0000  plane waves:    7750
 k-point  3 :   0.5000 0.5000 0.0000  plane waves:    7700
 k-point  4 :   0.0000 0.0000 0.2000  plane waves:    7731
 k-point  5 :   0.5000 0.0000 0.2000  plane waves:    7684
 k-point  6 :   0.5000 0.5000 0.2000  plane waves:    7712
 k-point  7 :   0.0000 0.0000 0.4000  plane waves:    7760
 k-point  8 :   0.5000 0.0000 0.4000  plane waves:    7736
 k-point  9 :   0.5000 0.5000 0.4000  plane waves:    7724

 maximum and minimum number of plane-waves per node :       748      672

 maximum number of plane-waves:      7760
 maximum index in each direction: 
   IXMAX=   15   IYMAX=   15   IZMAX=    7
   IXMIN=  -15   IYMIN=  -15   IZMIN=   -8


 real space projection operators:
  total allocation   :       4739.75 KBytes
  max/ min on nodes  :        457.25        404.72


 parallel 3D FFT for wavefunctions:
    minimum data exchange during FFTs selected (reduces bandwidth)
 parallel 3D FFT for charge:
    minimum data exchange during FFTs selected (reduces bandwidth)


 total amount of memory used by VASP MPI-rank0    37213. kBytes
=======================================================================

   base      :      30000. kBytes
   nonlr-proj:       2357. kBytes
   fftplans  :        621. kBytes
   grid      :       1581. kBytes
   one-center:         62. kBytes
   wavefun   :       2592. kBytes
 
     INWAV:  cpu time    0.0002: real time    0.0002
 Broyden mixing: mesh for mixing (old mesh)
   NGX = 31   NGY = 31   NGZ = 15
  (NGX  = 84   NGY  = 84   NGZ  = 42)
  gives a total of  14415 points

 initial charge density was supplied:
 charge density of overlapping atoms calculated
 number of electron     108.0000000 magnetization      16.0000000
 keeping initial charge density in first step


--------------------------------------------------------------------------------------------------------


 Maximum index for non-local projection operator          639
 Maximum index for augmentation-charges          587 (set IRDMAX)


--------------------------------------------------------------------------------------------------------


 First call to EWALD:  gamma=   0.289
 Maximum number of real-space cells 2x 2x 4
 Maximum number of reciprocal cells 3x 3x 2

    FEWALD:  cpu time    0.0067: real time    0.0067


--------------------------------------- Iteration      1(   1)  ---------------------------------------


    POTLOK:  cpu time    0.0585: real time    0.1334
    SETDIJ:  cpu time    2.6471: real time    2.6552
     EDDAV:  cpu time    0.6135: real time    0.7120
       DOS:  cpu time    0.0108: real time    0.0160
    --------------------------------------------
      LOOP:  cpu time    3.3300: real time    3.5168

 eigenvalue-minimisations  :  2592
 total energy-change (2. order) : 0.1191103E+04  (-0.5741296E+04)
 number of electron     108.0000000 magnetization      16.0000000
 augmentation part      108.0000000 magnetization      16.0000000

 Free energy of the ion-electron system (eV)
  ---------------------------------------------------
  alpha Z        PSCENC =       366.21720178
  Ewald energy   TEWEN  =     -5162.99900314
  -Hartree energ DENC   =     -2447.41049736
  -exchange      EXHF   =         0.00000000
  -V(xc)+E(xc)   XCENC  =       262.60115928
  PAW double counting   =      6362.12184073    -6222.39335305
  entropy T*S    EENTRO =        -0.00782389
  eigenvalues    EBANDS =       603.90022399
  atomic energy  EATOM  =      7429.07371459
  Solvation  Ediel_sol  =         0.00000000
  ---------------------------------------------------
  free energy    TOTEN  =      1191.10346293 eV

  energy without entropy =     1191.11128682  energy(sigma->0) =     1191.10737487


--------------------------------------------------------------------------------------------------------




--------------------------------------- Iteration      1(   2)  ---------------------------------------


     EDDAV:  cpu time    0.5887: real time    0.6284
       DOS:  cpu time    0.0039: real time    0.0039
    --------------------------------------------
      LOOP:  cpu time    0.5925: real time    0.6322

 eigenvalue-minimisations  :  2604
 total energy-change (2. order) :-0.1155249E+04  (-0.1098885E+04)
 number of electron     108.0000000 magnetization      16.0000000
 augmentation part      108.0000000 magnetization      16.0000000

 Free energy of the ion-electron system (eV)
  ---------------------------------------------------
  alpha Z        PSCENC =       366.21720178
  Ewald energy   TEWEN  =     -5162.99900314
  -Hartree energ DENC   =     -2447.41049736
  -exchange      EXHF   =         0.00000000
  -V(xc)+E(xc)   XCENC  =       262.60115928
  PAW double counting   =      6362.12184073    -6222.39335305
  entropy T*S    EENTRO =        -0.00734559
  eigenvalues    EBANDS =      -551.34942936
  atomic energy  EATOM  =      7429.07371459
  Solvation  Ediel_sol  =         0.00000000
  ---------------------------------------------------
  free energy    TOTEN  =        35.85428789 eV

  energy without entropy =       35.86163348  energy(sigma->0) =       35.85796068


--------------------------------------------------------------------------------------------------------




--------------------------------------- Iteration      1(   3)  ---------------------------------------


     EDDAV:  cpu time    0.7322: real time    0.7816
       DOS:  cpu time    0.0037: real time    0.0037
    --------------------------------------------
      LOOP:  cpu time    0.7359: real time    0.7853

 eigenvalue-minimisations  :  3552
 total energy-change (2. order) :-0.1644590E+03  (-0.1554251E+03)
 number of electron     108.0000000 magnetization      16.0000000
 augmentation part      108.0000000 magnetization      16.0000000

 Free energy of the ion-electron system (eV)
  ---------------------------------------------------
  alpha Z        PSCENC =       366.21720178
  Ewald energy   TEWEN  =     -5162.99900314
  -Hartree energ DENC   =     -2447.41049736
  -exchange      EXHF   =         0.00000000
  -V(xc)+E(xc)   XCENC  =       262.60115928
  PAW double counting   =      6362.12184073    -6222.39335305
  entropy T*S    EENTRO =        -0.02140546
  eigenvalues    EBANDS =      -715.79439390
  atomic energy  EATOM  =      7429.07371459
  Solvation  Ediel_sol  =         0.00000000
  ---------------------------------------------------
  free energy    TOTEN  =      -128.60473653 eV

  energy without entropy =     -128.58333107  energy(sigma->0) =     -128.59403380


--------------------------------------------------------------------------------------------------------




--------------------------------------- Iteration      1(   4)  ---------------------------------------


     EDDAV:  cpu time    0.6391: real time    0.6872
       DOS:  cpu time    0.0038: real time    0.0038
    --------------------------------------------
      LOOP:  cpu time    0.6429: real time    0.6910

 eigenvalue-minimisations  :  2880
 total energy-change (2. order) :-0.6212932E+01  (-0.6174567E+01)
 number of electron     108.0000000 magnetization      16.0000000
 augmentation part      108.0000000 magnetization      16.0000000

 Free energy of the ion-electron system (eV)
  ---------------------------------------------------
  alpha Z        PSCENC =       366.21720178
  Ewald energy   TEWEN  =     -5162.99900314
  -Hartree energ DENC   =     -2447.41049736
  -exchange      EXHF   =         0.00000000
  -V(xc)+E(xc)   XCENC  =       262.60115928
  PAW double counting   =      6362.12184073    -6222.39335305
  entropy T*S    EENTRO =        -0.02352849
  eigenvalues    EBANDS =      -722.00520330
  atomic energy  EATOM  =      7429.07371459
  Solvation  Ediel_sol  =         0.00000000
  ---------------------------------------------------
  free energy    TOTEN  =      -134.81766896 eV

  energy without entropy =     -134.79414047  energy(sigma->0) =     -134.80590472


--------------------------------------------------------------------------------------------------------




--------------------------------------- Iteration      1(   5)  ---------------------------------------


     EDDAV:  cpu time    0.6890: real time    0.7354
       DOS:  cpu time    0.0036: real time    0.0036
    CHARGE:  cpu time    0.1440: real time    0.1546
    MIXING:  cpu time    0.0058: real time    0.0109
    --------------------------------------------
      LOOP:  cpu time    0.8424: real time    0.9046

 eigenvalue-minimisations  :  3252
 total energy-change (2. order) :-0.1729620E+00  (-0.1728790E+00)
 number of electron     107.9999928 magnetization      14.8615216
 augmentation part       15.8724922 magnetization      12.2253002

 Broyden mixing:
  rms(total) = 0.93665E+01    rms(broyden)= 0.93663E+01
  rms(prec ) = 0.10594E+02
  weight for this iteration     100.00

 Free energy of the ion-electron system (eV)
  ---------------------------------------------------
  alpha Z        PSCENC =       366.21720178
  Ewald energy   TEWEN  =     -5162.99900314
  -Hartree energ DENC   =     -2447.41049736
  -exchange      EXHF   =         0.00000000
  -V(xc)+E(xc)   XCENC  =       262.60115928
  PAW double counting   =      6362.12184073    -6222.39335305
  entropy T*S    EENTRO =        -0.02351946
  eigenvalues    EBANDS =      -722.17817438
  atomic energy  EATOM  =      7429.07371459
  Solvation  Ediel_sol  =         0.00000000
  ---------------------------------------------------
  free energy    TOTEN  =      -134.99063101 eV

  energy without entropy =     -134.96711155  energy(sigma->0) =     -134.97887128


--------------------------------------------------------------------------------------------------------




--------------------------------------- Iteration      1(   6)  ---------------------------------------


    POTLOK:  cpu time    0.3198: real time   12.3062
    SETDIJ:  cpu time    2.6461: real time    2.6462
    EDDIAG:  cpu time    0.1666: real time    0.1742
  RMM-DIIS:  cpu time    0.2393: real time    0.2455
    ORTHCH:  cpu time    0.0105: real time    0.0105
       DOS:  cpu time    0.0040: real time    0.0040
    CHARGE:  cpu time    0.1427: real time    0.1427
    MIXING:  cpu time    0.0066: real time    0.0120
    --------------------------------------------
      LOOP:  cpu time    3.5354: real time   15.5413

 eigenvalue-minimisations  :  2626
 total energy-change (2. order) : 0.3720897E+02  (-0.5142791E+01)
 number of electron     107.9999940 magnetization      13.5457603
 augmentation part       16.9612932 magnetization       9.8016389

 Broyden mixing:
  rms(total) = 0.53697E+01    rms(broyden)= 0.53696E+01
  rms(prec ) = 0.54780E+01
  weight for this iteration     100.00

 eigenvalues of (default mixing * dielectric matrix)
  average eigenvalue GAMMA=   1.6976
  1.6976

 Free energy of the ion-electron system (eV)
  ---------------------------------------------------
  alpha Z        PSCENC =       366.21720178
  Ewald energy   TEWEN  =     -5162.99900314
  -Hartree energ DENC   =     -2479.26859497
  -exchange      EXHF   =         0.00000000
  -V(xc)+E(xc)   XCENC  =       269.23809249
  PAW double counting   =      7015.23497134    -6881.80313922
  entropy T*S    EENTRO =        -0.01749279
  eigenvalues    EBANDS =      -653.45740747
  atomic energy  EATOM  =      7429.07371459
  Solvation  Ediel_sol  =         0.00000000
  ---------------------------------------------------
  free energy    TOTEN  =       -97.78165740 eV

  energy without entropy =      -97.76416460  energy(sigma->0) =      -97.77291100


--------------------------------------------------------------------------------------------------------




--------------------------------------- Iteration      1(   7)  ---------------------------------------


    POTLOK:  cpu time    0.0409: real time    0.0866
    SETDIJ:  cpu time    2.6441: real time    2.6441
    EDDIAG:  cpu time    0.1670: real time    0.1670
  RMM-DIIS:  cpu time    0.2242: real time    0.2242
    ORTHCH:  cpu time    0.0104: real time    0.0105
       DOS:  cpu time    0.0076: real time    0.0076
    CHARGE:  cpu time    0.1389: real time    0.1389
    MIXING:  cpu time    0.0062: real time    0.0084
    --------------------------------------------
      LOOP:  cpu time    3.2393: real time    3.2873

 eigenvalue-minimisations  :  2604
 total energy-change (2. order) :-0.3199958E+00  (-0.1076356E+01)
 number of electron     107.9999947 magnetization      11.9262645
 augmentation part       17.6907381 magnetization       7.5980570

 Broyden mixing:
  rms(total) = 0.42380E+01    rms(broyden)= 0.42380E+01
  rms(prec ) = 0.42859E+01
  weight for this iteration     100.00

 eigenvalues of (default mixing * dielectric matrix)
  average eigenvalue GAMMA=   2.0601
  1.0038  3.1164

 Free energy of the ion-electron system (eV)
  ---------------------------------------------------
  alpha Z        PSCENC =       366.21720178
  Ewald energy   TEWEN  =     -5162.99900314
  -Hartree energ DENC   =     -2484.61907464
  -exchange      EXHF   =         0.00000000
  -V(xc)+E(xc)   XCENC  =       270.82076618
  PAW double counting   =      7761.37426155    -7632.22401580
  entropy T*S    EENTRO =        -0.03460486
  eigenvalues    EBANDS =      -645.71089883
  atomic energy  EATOM  =      7429.07371459
  Solvation  Ediel_sol  =         0.00000000
  ---------------------------------------------------
  free energy    TOTEN  =       -98.10165317 eV

  energy without entropy =      -98.06704831  energy(sigma->0) =      -98.08435074


--------------------------------------------------------------------------------------------------------




--------------------------------------- Iteration      1(   8)  ---------------------------------------


    POTLOK:  cpu time    0.0402: real time    0.0869
    SETDIJ:  cpu time    2.6434: real time    2.6435
    EDDIAG:  cpu time    0.1650: real time    0.1649
  RMM-DIIS:  cpu time    0.2259: real time    0.2259
    ORTHCH:  cpu time    0.0103: real time    0.0103
       DOS:  cpu time    0.0037: real time    0.0037
    CHARGE:  cpu time    0.1423: real time    0.1423
    MIXING:  cpu time    0.0054: real time    0.0058
    --------------------------------------------
      LOOP:  cpu time    3.2362: real time    3.2834

 eigenvalue-minimisations  :  2596
 total energy-change (2. order) :-0.1955909E+00  (-0.1445593E+00)
 number of electron     107.9999926 magnetization       9.1554942
 augmentation part       17.0589261 magnetization       6.0369977

 Broyden mixing:
  rms(total) = 0.22759E+01    rms(broyden)= 0.22759E+01
  rms(prec ) = 0.23535E+01
  weight for this iteration     100.00

 eigenvalues of (default mixing * dielectric matrix)
  average eigenvalue GAMMA=   2.5045
  5.6725  1.1474  0.6936

 Free energy of the ion-electron system (eV)
  ---------------------------------------------------
  alpha Z        PSCENC =       366.21720178
  Ewald energy   TEWEN  =     -5162.99900314
  -Hartree energ DENC   =     -2475.52166646
  -exchange      EXHF   =         0.00000000
  -V(xc)+E(xc)   XCENC  =       269.09997498
  PAW double counting   =      8716.91514815    -8591.25937338
  entropy T*S    EENTRO =        -0.02074329
  eigenvalues    EBANDS =      -649.80249733
  atomic energy  EATOM  =      7429.07371459
  Solvation  Ediel_sol  =         0.00000000
  ---------------------------------------------------
  free energy    TOTEN  =       -98.29724409 eV

  energy without entropy =      -98.27650081  energy(sigma->0) =      -98.28687245


--------------------------------------------------------------------------------------------------------




--------------------------------------- Iteration      1(   9)  ---------------------------------------


    POTLOK:  cpu time    0.0445: real time    0.1007
    SETDIJ:  cpu time    2.6434: real time    2.6435
    EDDIAG:  cpu time    0.1638: real time    0.1638
  RMM-DIIS:  cpu time    0.2257: real time    0.2257
    ORTHCH:  cpu time    0.0107: real time    0.0107
       DOS:  cpu time    0.0035: real time    0.0035
    CHARGE:  cpu time    0.1398: real time    0.1398
    MIXING:  cpu time    0.0080: real time    0.0091
    --------------------------------------------
      LOOP:  cpu time    3.2394: real time    3.2968

 eigenvalue-minimisations  :  2593
 total energy-change (2. order) :-0.5983783E+00  (-0.4599946E-01)
 number of electron     107.9999946 magnetization       8.8300496
 augmentation part       17.1160773 magnetization       5.8970544

 Broyden mixing:
  rms(total) = 0.11219E+01    rms(broyden)= 0.11219E+01
  rms(prec ) = 0.12231E+01
  weight for this iteration     100.00

 eigenvalues of (default mixing * dielectric matrix)
  average eigenvalue GAMMA=   2.0312
  5.7228  1.1819  0.6100  0.6100

 Free energy of the ion-electron system (eV)
  ---------------------------------------------------
  alpha Z        PSCENC =       366.21720178
  Ewald energy   TEWEN  =     -5162.99900314
  -Hartree energ DENC   =     -2469.86277303
  -exchange      EXHF   =         0.00000000
  -V(xc)+E(xc)   XCENC  =       268.76484890
  PAW double counting   =     10188.52779318   -10068.82038494
  entropy T*S    EENTRO =        -0.01793769
  eigenvalues    EBANDS =      -649.77908207
  atomic energy  EATOM  =      7429.07371459
  Solvation  Ediel_sol  =         0.00000000
  ---------------------------------------------------
  free energy    TOTEN  =       -98.89562242 eV

  energy without entropy =      -98.87768473  energy(sigma->0) =      -98.88665357


--------------------------------------------------------------------------------------------------------




--------------------------------------- Iteration      1(  10)  ---------------------------------------


    POTLOK:  cpu time    0.0412: real time    0.0870
    SETDIJ:  cpu time    2.6434: real time    2.6435
    EDDIAG:  cpu time    0.1647: real time    0.1647
  RMM-DIIS:  cpu time    0.2282: real time    0.2282
    ORTHCH:  cpu time    0.0104: real time    0.0104
       DOS:  cpu time    0.0040: real time    0.0040
    CHARGE:  cpu time    0.1412: real time    0.1412
    MIXING:  cpu time    0.0048: real time    0.0048
    --------------------------------------------
      LOOP:  cpu time    3.2380: real time    3.2839

 eigenvalue-minimisations  :  2604
 total energy-change (2. order) : 0.4227018E-01  (-0.6451252E-02)
 number of electron     107.9999934 magnetization       8.6956771
 augmentation part       17.1386661 magnetization       6.1651561

 Broyden mixing:
  rms(total) = 0.10654E+01    rms(broyden)= 0.10654E+01
  rms(prec ) = 0.11310E+01
  weight for this iteration     100.00

 eigenvalues of (default mixing * dielectric matrix)
  average eigenvalue GAMMA=   1.7451
  5.4099  1.1833  0.7961  0.7961  0.5400

 Free energy of the ion-electron system (eV)
  ---------------------------------------------------
  alpha Z        PSCENC =       366.21720178
  Ewald energy   TEWEN  =     -5162.99900314
  -Hartree energ DENC   =     -2470.80207266
  -exchange      EXHF   =         0.00000000
  -V(xc)+E(xc)   XCENC  =       268.85464758
  PAW double counting   =     10206.64650321   -10087.09653316
  entropy T*S    EENTRO =        -0.03170199
  eigenvalues    EBANDS =      -648.71610844
  atomic energy  EATOM  =      7429.07371459
  Solvation  Ediel_sol  =         0.00000000
  ---------------------------------------------------
  free energy    TOTEN  =       -98.85335223 eV

  energy without entropy =      -98.82165024  energy(sigma->0) =      -98.83750124


--------------------------------------------------------------------------------------------------------




--------------------------------------- Iteration      1(  11)  ---------------------------------------


    POTLOK:  cpu time    0.0424: real time    0.0913
    SETDIJ:  cpu time    2.6452: real time    2.6453
    EDDIAG:  cpu time    0.1649: real time    0.1650
  RMM-DIIS:  cpu time    0.2306: real time    0.2306
    ORTHCH:  cpu time    0.0104: real time    0.0104
       DOS:  cpu time    0.0041: real time    0.0041
    CHARGE:  cpu time    0.1419: real time    0.1419
    MIXING:  cpu time    0.0047: real time    0.0047
    --------------------------------------------
      LOOP:  cpu time    3.2444: real time    3.2934

 eigenvalue-minimisations  :  2616
 total energy-change (2. order) : 0.1040453E+00  (-0.8730198E-02)
 number of electron     107.9999935 magnetization       7.8069012
 augmentation part       17.2114193 magnetization       5.3414159

 Broyden mixing:
  rms(total) = 0.85767E+00    rms(broyden)= 0.85767E+00
  rms(prec ) = 0.88042E+00
  weight for this iteration     100.00

 eigenvalues of (default mixing * dielectric matrix)
  average eigenvalue GAMMA=   1.9064
  5.7268  1.5669  1.5669  1.1793  0.6993  0.6993

 Free energy of the ion-electron system (eV)
  ---------------------------------------------------
  alpha Z        PSCENC =       366.21720178
  Ewald energy   TEWEN  =     -5162.99900314
  -Hartree energ DENC   =     -2473.08239381
  -exchange      EXHF   =         0.00000000
  -V(xc)+E(xc)   XCENC  =       269.09081577
  PAW double counting   =     10029.64558222    -9909.56283765
  entropy T*S    EENTRO =        -0.02701429
  eigenvalues    EBANDS =      -647.10537236
  atomic energy  EATOM  =      7429.07371459
  Solvation  Ediel_sol  =         0.00000000
  ---------------------------------------------------
  free energy    TOTEN  =       -98.74930689 eV

  energy without entropy =      -98.72229260  energy(sigma->0) =      -98.73579975


--------------------------------------------------------------------------------------------------------




--------------------------------------- Iteration      1(  12)  ---------------------------------------


    POTLOK:  cpu time    0.0437: real time    0.0885
    SETDIJ:  cpu time    2.6432: real time    2.6433
    EDDIAG:  cpu time    0.1645: real time    0.1645
  RMM-DIIS:  cpu time    0.2271: real time    0.2271
    ORTHCH:  cpu time    0.0104: real time    0.0104
       DOS:  cpu time    0.0039: real time    0.0039
    CHARGE:  cpu time    0.1405: real time    0.1405
    MIXING:  cpu time    0.0048: real time    0.0048
    --------------------------------------------
      LOOP:  cpu time    3.2379: real time    3.2827

 eigenvalue-minimisations  :  2605
 total energy-change (2. order) :-0.2034985E+00  (-0.2326802E-02)
 number of electron     107.9999938 magnetization       6.0437105
 augmentation part       17.1667340 magnetization       3.7652460

 Broyden mixing:
  rms(total) = 0.83516E+00    rms(broyden)= 0.83516E+00
  rms(prec ) = 0.87733E+00
  weight for this iteration     100.00

 eigenvalues of (default mixing * dielectric matrix)
  average eigenvalue GAMMA=   2.1818
  4.7889  4.7889  2.1930  0.9676  0.9676  0.9128  0.6538

 Free energy of the ion-electron system (eV)
  ---------------------------------------------------
  alpha Z        PSCENC =       366.21720178
  Ewald energy   TEWEN  =     -5162.99900314
  -Hartree energ DENC   =     -2472.40564652
  -exchange      EXHF   =         0.00000000
  -V(xc)+E(xc)   XCENC  =       268.85576334
  PAW double counting   =     10044.36545771    -9924.39030848
  entropy T*S    EENTRO =        -0.02914923
  eigenvalues    EBANDS =      -647.64083546
  atomic energy  EATOM  =      7429.07371459
  Solvation  Ediel_sol  =         0.00000000
  ---------------------------------------------------
  free energy    TOTEN  =       -98.95280541 eV

  energy without entropy =      -98.92365618  energy(sigma->0) =      -98.93823079


--------------------------------------------------------------------------------------------------------




--------------------------------------- Iteration      1(  13)  ---------------------------------------


    POTLOK:  cpu time    0.0406: real time    0.0873
    SETDIJ:  cpu time    2.6440: real time    2.6441
    EDDIAG:  cpu time    0.1639: real time    0.1639
  RMM-DIIS:  cpu time    0.2258: real time    0.2258
    ORTHCH:  cpu time    0.0103: real time    0.0103
       DOS:  cpu time    0.0039: real time    0.0039
    CHARGE:  cpu time    0.1392: real time    0.1392
    MIXING:  cpu time    0.0050: real time    0.0050
    --------------------------------------------
      LOOP:  cpu time    3.2327: real time    3.2796

 eigenvalue-minimisations  :  2601
 total energy-change (2. order) :-0.1812101E+00  (-0.1519489E-01)
 number of electron     107.9999931 magnetization       5.8672202
 augmentation part       17.2558220 magnetization       4.2523358

 Broyden mixing:
  rms(total) = 0.70906E+00    rms(broyden)= 0.70904E+00
  rms(prec ) = 0.72384E+00
  weight for this iteration     100.00

 eigenvalues of (default mixing * dielectric matrix)
  average eigenvalue GAMMA=   2.1795
  4.6198  4.6198  3.7928  1.0895  1.0895  0.9200  0.6525  0.6525

 Free energy of the ion-electron system (eV)
  ---------------------------------------------------
  alpha Z        PSCENC =       366.21720178
  Ewald energy   TEWEN  =     -5162.99900314
  -Hartree energ DENC   =     -2474.15452469
  -exchange      EXHF   =         0.00000000
  -V(xc)+E(xc)   XCENC  =       268.90493183
  PAW double counting   =      9737.47365432    -9616.63303708
  entropy T*S    EENTRO =        -0.02115246
  eigenvalues    EBANDS =      -646.99580069
  atomic energy  EATOM  =      7429.07371459
  Solvation  Ediel_sol  =         0.00000000
  ---------------------------------------------------
  free energy    TOTEN  =       -99.13401554 eV

  energy without entropy =      -99.11286308  energy(sigma->0) =      -99.12343931


--------------------------------------------------------------------------------------------------------




--------------------------------------- Iteration      1(  14)  ---------------------------------------


    POTLOK:  cpu time    0.0407: real time    0.0872
    SETDIJ:  cpu time    2.6444: real time    2.6445
    EDDIAG:  cpu time    0.1640: real time    0.1640
  RMM-DIIS:  cpu time    0.2305: real time    0.2305
    ORTHCH:  cpu time    0.0107: real time    0.0107
       DOS:  cpu time    0.0037: real time    0.0037
    CHARGE:  cpu time    0.1395: real time    0.1395
    MIXING:  cpu time    0.0051: real time    0.0051
    --------------------------------------------
      LOOP:  cpu time    3.2385: real time    3.2852

 eigenvalue-minimisations  :  2623
 total energy-change (2. order) :-0.2530893E-01  (-0.3231839E-02)
 number of electron     107.9999931 magnetization       2.3325922
 augmentation part       17.2912723 magnetization       0.7515536

 Broyden mixing:
  rms(total) = 0.62685E+00    rms(broyden)= 0.62684E+00
  rms(prec ) = 0.64306E+00
  weight for this iteration     100.00

 eigenvalues of (default mixing * dielectric matrix)
  average eigenvalue GAMMA=   3.2500
  9.4810  9.4810  4.4937  1.4681  1.1097  0.8961  0.8961  0.7121  0.7121

 Free energy of the ion-electron system (eV)
  ---------------------------------------------------
  alpha Z        PSCENC =       366.21720178
  Ewald energy   TEWEN  =     -5162.99900314
  -Hartree energ DENC   =     -2473.89249751
  -exchange      EXHF   =         0.00000000
  -V(xc)+E(xc)   XCENC  =       268.92772349
  PAW double counting   =      9676.84736745    -9555.80595222
  entropy T*S    EENTRO =        -0.01896848
  eigenvalues    EBANDS =      -647.50891042
  atomic energy  EATOM  =      7429.07371459
  Solvation  Ediel_sol  =         0.00000000
  ---------------------------------------------------
  free energy    TOTEN  =       -99.15932446 eV

  energy without entropy =      -99.14035598  energy(sigma->0) =      -99.14984022


--------------------------------------------------------------------------------------------------------




--------------------------------------- Iteration      1(  15)  ---------------------------------------


    POTLOK:  cpu time    0.0402: real time    0.0886
    SETDIJ:  cpu time    2.6441: real time    2.6442
    EDDIAG:  cpu time    0.1646: real time    0.1646
  RMM-DIIS:  cpu time    0.2254: real time    0.2254
    ORTHCH:  cpu time    0.0102: real time    0.0102
       DOS:  cpu time    0.0062: real time    0.0062
    CHARGE:  cpu time    0.1400: real time    0.1400
    MIXING:  cpu time    0.0052: real time    0.0052
    --------------------------------------------
      LOOP:  cpu time    3.2359: real time    3.2844

 eigenvalue-minimisations  :  2592
 total energy-change (2. order) :-0.2825330E+00  (-0.2401972E-01)
 number of electron     107.9999937 magnetization       1.8806435
 augmentation part       17.3259314 magnetization       0.8452872

 Broyden mixing:
  rms(total) = 0.32666E+00    rms(broyden)= 0.32660E+00
  rms(prec ) = 0.34554E+00
  weight for this iteration     100.00

 eigenvalues of (default mixing * dielectric matrix)
  average eigenvalue GAMMA=   3.1312
  8.7609  8.7609  5.7977  2.1132  1.5112  1.0872  0.9096  0.9096  0.7306  0.7306

 Free energy of the ion-electron system (eV)
  ---------------------------------------------------
  alpha Z        PSCENC =       366.21720178
  Ewald energy   TEWEN  =     -5162.99900314
  -Hartree energ DENC   =     -2469.53186356
  -exchange      EXHF   =         0.00000000
  -V(xc)+E(xc)   XCENC  =       268.49552605
  PAW double counting   =      9608.87737860    -9487.86604049
  entropy T*S    EENTRO =        -0.02172853
  eigenvalues    EBANDS =      -651.68704275
  atomic energy  EATOM  =      7429.07371459
  Solvation  Ediel_sol  =         0.00000000
  ---------------------------------------------------
  free energy    TOTEN  =       -99.44185745 eV

  energy without entropy =      -99.42012892  energy(sigma->0) =      -99.43099319


--------------------------------------------------------------------------------------------------------




--------------------------------------- Iteration      1(  16)  ---------------------------------------


    POTLOK:  cpu time    0.0419: real time    0.0889
    SETDIJ:  cpu time    2.6434: real time    2.6435
    EDDIAG:  cpu time    0.1647: real time    0.1647
  RMM-DIIS:  cpu time    0.2293: real time    0.2293
    ORTHCH:  cpu time    0.0106: real time    0.0106
       DOS:  cpu time    0.0040: real time    0.0040
    CHARGE:  cpu time    0.1414: real time    0.1414
    MIXING:  cpu time    0.0105: real time    0.0166
    --------------------------------------------
      LOOP:  cpu time    3.2458: real time    3.2990

 eigenvalue-minimisations  :  2600
 total energy-change (2. order) :-0.1180916E-01  (-0.8365309E-02)
 number of electron     107.9999939 magnetization       1.3445726
 augmentation part       17.2258803 magnetization       0.2977341

 Broyden mixing:
  rms(total) = 0.27352E+00    rms(broyden)= 0.27350E+00
  rms(prec ) = 0.30540E+00
  weight for this iteration     100.00

 eigenvalues of (default mixing * dielectric matrix)
  average eigenvalue GAMMA=   3.3447
 11.9225  8.6460  5.2821  4.0734  1.5004  1.0876  0.9403  0.9403  0.9619  0.7185
  0.7185

 Free energy of the ion-electron system (eV)
  ---------------------------------------------------
  alpha Z        PSCENC =       366.21720178
  Ewald energy   TEWEN  =     -5162.99900314
  -Hartree energ DENC   =     -2471.58965455
  -exchange      EXHF   =         0.00000000
  -V(xc)+E(xc)   XCENC  =       268.41116345
  PAW double counting   =      9758.63784303    -9638.14605679
  entropy T*S    EENTRO =        -0.02463096
  eigenvalues    EBANDS =      -649.03424404
  atomic energy  EATOM  =      7429.07371459
  Solvation  Ediel_sol  =         0.00000000
  ---------------------------------------------------
  free energy    TOTEN  =       -99.45366661 eV

  energy without entropy =      -99.42903565  energy(sigma->0) =      -99.44135113


--------------------------------------------------------------------------------------------------------




--------------------------------------- Iteration      1(  17)  ---------------------------------------


    POTLOK:  cpu time    0.3211: real time    6.4594
    SETDIJ:  cpu time    2.6425: real time    2.6426
    EDDIAG:  cpu time    0.1649: real time    0.1650
  RMM-DIIS:  cpu time    0.2263: real time    0.2263
    ORTHCH:  cpu time    0.0105: real time    0.0105
       DOS:  cpu time    0.0037: real time    0.0037
    CHARGE:  cpu time    0.1395: real time    0.1395
    MIXING:  cpu time    0.0086: real time    0.0093
    --------------------------------------------
      LOOP:  cpu time    3.5172: real time    9.6562

 eigenvalue-minimisations  :  2592
 total energy-change (2. order) :-0.8291429E-02  (-0.4750934E-02)
 number of electron     107.9999931 magnetization       1.3960216
 augmentation part       17.2431867 magnetization       0.8384013

 Broyden mixing:
  rms(total) = 0.25498E+00    rms(broyden)= 0.25492E+00
  rms(prec ) = 0.26749E+00
  weight for this iteration     100.00

 eigenvalues of (default mixing * dielectric matrix)
  average eigenvalue GAMMA=   3.0381
 11.7806  8.4993  5.0628  4.0572  1.4978  0.9393  0.9393  1.0793  0.9743  0.7180
  0.7180  0.1916

 Free energy of the ion-electron system (eV)
  ---------------------------------------------------
  alpha Z        PSCENC =       366.21720178
  Ewald energy   TEWEN  =     -5162.99900314
  -Hartree energ DENC   =     -2475.69894557
  -exchange      EXHF   =         0.00000000
  -V(xc)+E(xc)   XCENC  =       268.67748817
  PAW double counting   =      9693.99657014    -9573.30085935
  entropy T*S    EENTRO =        -0.01888143
  eigenvalues    EBANDS =      -645.40924323
  atomic energy  EATOM  =      7429.07371459
  Solvation  Ediel_sol  =         0.00000000
  ---------------------------------------------------
  free energy    TOTEN  =       -99.46195804 eV

  energy without entropy =      -99.44307661  energy(sigma->0) =      -99.45251733


--------------------------------------------------------------------------------------------------------




--------------------------------------- Iteration      1(  18)  ---------------------------------------


    POTLOK:  cpu time    0.0413: real time    0.0881
    SETDIJ:  cpu time    2.6429: real time    2.6430
    EDDIAG:  cpu time    0.1647: real time    0.1647
  RMM-DIIS:  cpu time    0.2311: real time    0.2311
    ORTHCH:  cpu time    0.0107: real time    0.0107
       DOS:  cpu time    0.0048: real time    0.0048
    CHARGE:  cpu time    0.1400: real time    0.1400
    MIXING:  cpu time    0.0087: real time    0.0093
    --------------------------------------------
      LOOP:  cpu time    3.2441: real time    3.2916

 eigenvalue-minimisations  :  2611
 total energy-change (2. order) : 0.2459727E-02  (-0.2838218E-03)
 number of electron     107.9999931 magnetization       1.3041835
 augmentation part       17.2477119 magnetization       0.7374465

 Broyden mixing:
  rms(total) = 0.27119E+00    rms(broyden)= 0.27119E+00
  rms(prec ) = 0.28662E+00
  weight for this iteration     100.00

 eigenvalues of (default mixing * dielectric matrix)
  average eigenvalue GAMMA=   3.0730
 11.3618 11.3618  4.1364  4.1364  1.5575  1.0781  0.9440  0.9440  0.9106  0.7132
  0.7132  1.0459  1.0459

 Free energy of the ion-electron system (eV)
  ---------------------------------------------------
  alpha Z        PSCENC =       366.21720178
  Ewald energy   TEWEN  =     -5162.99900314
  -Hartree energ DENC   =     -2475.46965696
  -exchange      EXHF   =         0.00000000
  -V(xc)+E(xc)   XCENC  =       268.67481266
  PAW double counting   =      9685.75122145    -9565.03454318
  entropy T*S    EENTRO =        -0.01884309
  eigenvalues    EBANDS =      -645.65440244
  atomic energy  EATOM  =      7429.07371459
  Solvation  Ediel_sol  =         0.00000000
  ---------------------------------------------------
  free energy    TOTEN  =       -99.45949832 eV

  energy without entropy =      -99.44065523  energy(sigma->0) =      -99.45007677


--------------------------------------------------------------------------------------------------------




--------------------------------------- Iteration      1(  19)  ---------------------------------------


    POTLOK:  cpu time    0.0473: real time    0.0952
    SETDIJ:  cpu time    2.6434: real time    2.6435
    EDDIAG:  cpu time    0.1647: real time    0.1647
  RMM-DIIS:  cpu time    0.2304: real time    0.2304
    ORTHCH:  cpu time    0.0105: real time    0.0105
       DOS:  cpu time    0.0041: real time    0.0041
    CHARGE:  cpu time    0.1399: real time    0.1399
    MIXING:  cpu time    0.0086: real time    0.0089
    --------------------------------------------
      LOOP:  cpu time    3.2489: real time    3.2973

 eigenvalue-minimisations  :  2611
 total energy-change (2. order) :-0.5772420E-02  (-0.2739671E-03)
 number of electron     107.9999932 magnetization       0.7390337
 augmentation part       17.2512179 magnetization       0.1921197

 Broyden mixing:
  rms(total) = 0.20514E+00    rms(broyden)= 0.20514E+00
  rms(prec ) = 0.21641E+00
  weight for this iteration     100.00

 eigenvalues of (default mixing * dielectric matrix)
  average eigenvalue GAMMA=   3.3809
 15.7913 10.9875  4.5594  3.5716  3.5716  1.4811  1.4811  0.9309  0.9309  1.0203
  0.9716  0.7183  0.7183  0.5986

 Free energy of the ion-electron system (eV)
  ---------------------------------------------------
  alpha Z        PSCENC =       366.21720178
  Ewald energy   TEWEN  =     -5162.99900314
  -Hartree energ DENC   =     -2475.10690366
  -exchange      EXHF   =         0.00000000
  -V(xc)+E(xc)   XCENC  =       268.64704859
  PAW double counting   =      9651.34088548    -9530.47847412
  entropy T*S    EENTRO =        -0.01861963
  eigenvalues    EBANDS =      -646.14112063
  atomic energy  EATOM  =      7429.07371459
  Solvation  Ediel_sol  =         0.00000000
  ---------------------------------------------------
  free energy    TOTEN  =       -99.46527074 eV

  energy without entropy =      -99.44665111  energy(sigma->0) =      -99.45596092


--------------------------------------------------------------------------------------------------------




--------------------------------------- Iteration      1(  20)  ---------------------------------------


    POTLOK:  cpu time    0.0436: real time    0.0872
    SETDIJ:  cpu time    2.6416: real time    2.6417
    EDDIAG:  cpu time    0.1643: real time    0.1643
  RMM-DIIS:  cpu time    0.2264: real time    0.2264
    ORTHCH:  cpu time    0.0103: real time    0.0103
       DOS:  cpu time    0.0040: real time    0.0040
    CHARGE:  cpu time    0.1409: real time    0.1409
    MIXING:  cpu time    0.0091: real time    0.0102
    --------------------------------------------
      LOOP:  cpu time    3.2402: real time    3.2850

 eigenvalue-minimisations  :  2593
 total energy-change (2. order) :-0.1472467E-01  (-0.1829811E-02)
 number of electron     107.9999933 magnetization       0.6044188
 augmentation part       17.2613825 magnetization       0.1994517

 Broyden mixing:
  rms(total) = 0.11735E+00    rms(broyden)= 0.11734E+00
  rms(prec ) = 0.12264E+00
  weight for this iteration     100.00

 eigenvalues of (default mixing * dielectric matrix)
  average eigenvalue GAMMA=   3.3941
 17.9259  9.8142  4.9715  4.9715  3.5657  1.4861  1.2361  1.1299  1.1299  0.8879
  0.8879  0.7058  0.7058  0.7466  0.7466

 Free energy of the ion-electron system (eV)
  ---------------------------------------------------
  alpha Z        PSCENC =       366.21720178
  Ewald energy   TEWEN  =     -5162.99900314
  -Hartree energ DENC   =     -2474.01082530
  -exchange      EXHF   =         0.00000000
  -V(xc)+E(xc)   XCENC  =       268.58327556
  PAW double counting   =      9658.85054597    -9538.00199944
  entropy T*S    EENTRO =        -0.01770655
  eigenvalues    EBANDS =      -647.17519886
  atomic energy  EATOM  =      7429.07371459
  Solvation  Ediel_sol  =         0.00000000
  ---------------------------------------------------
  free energy    TOTEN  =       -99.47999540 eV

  energy without entropy =      -99.46228885  energy(sigma->0) =      -99.47114213


--------------------------------------------------------------------------------------------------------




--------------------------------------- Iteration      1(  21)  ---------------------------------------


    POTLOK:  cpu time    0.0410: real time    0.0877
    SETDIJ:  cpu time    2.6420: real time    2.6421
    EDDIAG:  cpu time    0.1635: real time    0.1635
  RMM-DIIS:  cpu time    0.2274: real time    0.2274
    ORTHCH:  cpu time    0.0103: real time    0.0103
       DOS:  cpu time    0.0041: real time    0.0041
    CHARGE:  cpu time    0.1410: real time    0.1411
    MIXING:  cpu time    0.0099: real time    0.0125
    --------------------------------------------
      LOOP:  cpu time    3.2395: real time    3.2889

 eigenvalue-minimisations  :  2596
 total energy-change (2. order) :-0.3321290E-02  (-0.2903638E-03)
 number of electron     107.9999933 magnetization       0.6198322
 augmentation part       17.2740886 magnetization       0.2451049

 Broyden mixing:
  rms(total) = 0.12192E+00    rms(broyden)= 0.12192E+00
  rms(prec ) = 0.13158E+00
  weight for this iteration     100.00

 eigenvalues of (default mixing * dielectric matrix)
  average eigenvalue GAMMA=   3.3975
 18.4623 10.5404  5.3772  5.3772  2.3560  2.3560  1.4624  1.4624  1.0991  0.9759
  0.9759  0.9120  0.9120  0.7203  0.7203  0.6500

 Free energy of the ion-electron system (eV)
  ---------------------------------------------------
  alpha Z        PSCENC =       366.21720178
  Ewald energy   TEWEN  =     -5162.99900314
  -Hartree energ DENC   =     -2473.65063401
  -exchange      EXHF   =         0.00000000
  -V(xc)+E(xc)   XCENC  =       268.57942036
  PAW double counting   =      9655.59733828    -9534.74591475
  entropy T*S    EENTRO =        -0.01787015
  eigenvalues    EBANDS =      -647.53756965
  atomic energy  EATOM  =      7429.07371459
  Solvation  Ediel_sol  =         0.00000000
  ---------------------------------------------------
  free energy    TOTEN  =       -99.48331669 eV

  energy without entropy =      -99.46544654  energy(sigma->0) =      -99.47438162


--------------------------------------------------------------------------------------------------------




--------------------------------------- Iteration      1(  22)  ---------------------------------------


    POTLOK:  cpu time    0.0406: real time    0.0878
    SETDIJ:  cpu time    2.6438: real time    2.6439
    EDDIAG:  cpu time    0.1641: real time    0.1641
  RMM-DIIS:  cpu time    0.2323: real time    0.2323
    ORTHCH:  cpu time    0.0105: real time    0.0105
       DOS:  cpu time    0.0041: real time    0.0041
    CHARGE:  cpu time    0.1405: real time    0.1406
    MIXING:  cpu time    0.0096: real time    0.0105
    --------------------------------------------
      LOOP:  cpu time    3.2451: real time    3.2934

 eigenvalue-minimisations  :  2633
 total energy-change (2. order) :-0.1286509E-02  (-0.1477591E-03)
 number of electron     107.9999933 magnetization       0.7251143
 augmentation part       17.2686946 magnetization       0.3420388

 Broyden mixing:
  rms(total) = 0.12130E+00    rms(broyden)= 0.12130E+00
  rms(prec ) = 0.13076E+00
  weight for this iteration     100.00

 eigenvalues of (default mixing * dielectric matrix)
  average eigenvalue GAMMA=   3.2296
 16.9741  9.0868  7.0259  5.3058  2.9525  2.9525  1.4416  1.4416  1.0372  1.0372
  1.0593  0.9256  0.9256  0.7228  0.7228  0.6459  0.6459

 Free energy of the ion-electron system (eV)
  ---------------------------------------------------
  alpha Z        PSCENC =       366.21720178
  Ewald energy   TEWEN  =     -5162.99900314
  -Hartree energ DENC   =     -2474.32564977
  -exchange      EXHF   =         0.00000000
  -V(xc)+E(xc)   XCENC  =       268.61009558
  PAW double counting   =      9651.45157393    -9530.57451333
  entropy T*S    EENTRO =        -0.01744568
  eigenvalues    EBANDS =      -646.92057716
  atomic energy  EATOM  =      7429.07371459
  Solvation  Ediel_sol  =         0.00000000
  ---------------------------------------------------
  free energy    TOTEN  =       -99.48460320 eV

  energy without entropy =      -99.46715752  energy(sigma->0) =      -99.47588036


--------------------------------------------------------------------------------------------------------




--------------------------------------- Iteration      1(  23)  ---------------------------------------


    POTLOK:  cpu time    0.0401: real time    0.0865
    SETDIJ:  cpu time    2.6419: real time    2.6419
    EDDIAG:  cpu time    0.1623: real time    0.1623
  RMM-DIIS:  cpu time    0.2268: real time    0.2268
    ORTHCH:  cpu time    0.0106: real time    0.0105
       DOS:  cpu time    0.0039: real time    0.0039
    CHARGE:  cpu time    0.1395: real time    0.1395
    MIXING:  cpu time    0.0069: real time    0.0069
    --------------------------------------------
      LOOP:  cpu time    3.2319: real time    3.2785

 eigenvalue-minimisations  :  2592
 total energy-change (2. order) : 0.1414163E-02  (-0.1350933E-03)
 number of electron     107.9999933 magnetization       0.7066511
 augmentation part       17.2576167 magnetization       0.2943454

 Broyden mixing:
  rms(total) = 0.70093E-01    rms(broyden)= 0.70093E-01
  rms(prec ) = 0.82178E-01
  weight for this iteration     100.00

 eigenvalues of (default mixing * dielectric matrix)
  average eigenvalue GAMMA=   3.4547
 17.8344 10.3003 10.3003  5.2753  3.3705  1.9178  1.9178  1.8504  1.2892  1.2892
  1.0743  0.9288  0.9288  0.9003  0.9003  0.7202  0.7202  0.6671

 Free energy of the ion-electron system (eV)
  ---------------------------------------------------
  alpha Z        PSCENC =       366.21720178
  Ewald energy   TEWEN  =     -5162.99900314
  -Hartree energ DENC   =     -2474.23850763
  -exchange      EXHF   =         0.00000000
  -V(xc)+E(xc)   XCENC  =       268.59189196
  PAW double counting   =      9673.73396654    -9552.93595233
  entropy T*S    EENTRO =        -0.01690178
  eigenvalues    EBANDS =      -646.90959903
  atomic energy  EATOM  =      7429.07371459
  Solvation  Ediel_sol  =         0.00000000
  ---------------------------------------------------
  free energy    TOTEN  =       -99.48318904 eV

  energy without entropy =      -99.46628726  energy(sigma->0) =      -99.47473815


--------------------------------------------------------------------------------------------------------




--------------------------------------- Iteration      1(  24)  ---------------------------------------


    POTLOK:  cpu time    0.0405: real time    0.0867
    SETDIJ:  cpu time    2.6413: real time    2.6414
    EDDIAG:  cpu time    0.1638: real time    0.1638
  RMM-DIIS:  cpu time    0.2241: real time    0.2241
    ORTHCH:  cpu time    0.0105: real time    0.0105
       DOS:  cpu time    0.0040: real time    0.0040
    CHARGE:  cpu time    0.1395: real time    0.1395
    MIXING:  cpu time    0.0066: real time    0.0066
    --------------------------------------------
      LOOP:  cpu time    3.2302: real time    3.2765

 eigenvalue-minimisations  :  2598
 total energy-change (2. order) : 0.3013030E-03  (-0.1355501E-03)
 number of electron     107.9999933 magnetization       0.6579560
 augmentation part       17.2576923 magnetization       0.2407090

 Broyden mixing:
  rms(total) = 0.52690E-01    rms(broyden)= 0.52689E-01
  rms(prec ) = 0.58828E-01
  weight for this iteration     100.00

 eigenvalues of (default mixing * dielectric matrix)
  average eigenvalue GAMMA=   3.5373
 19.4714 10.2064 10.2064  5.7965  4.0320  2.7061  2.7061  1.6327  1.6327  1.1057
  1.1057  0.9326  0.9326  0.9317  0.9317  0.7232  0.7232  0.7523  0.6790

 Free energy of the ion-electron system (eV)
  ---------------------------------------------------
  alpha Z        PSCENC =       366.21720178
  Ewald energy   TEWEN  =     -5162.99900314
  -Hartree energ DENC   =     -2473.60569699
  -exchange      EXHF   =         0.00000000
  -V(xc)+E(xc)   XCENC  =       268.54854826
  PAW double counting   =      9670.96733542    -9550.15063883
  entropy T*S    EENTRO =        -0.01672631
  eigenvalues    EBANDS =      -647.51762251
  atomic energy  EATOM  =      7429.07371459
  Solvation  Ediel_sol  =         0.00000000
  ---------------------------------------------------
  free energy    TOTEN  =       -99.48288774 eV

  energy without entropy =      -99.46616142  energy(sigma->0) =      -99.47452458


--------------------------------------------------------------------------------------------------------




--------------------------------------- Iteration      1(  25)  ---------------------------------------


    POTLOK:  cpu time    0.0418: real time    0.0930
    SETDIJ:  cpu time    2.6417: real time    2.6418
    EDDIAG:  cpu time    0.1630: real time    0.1630
  RMM-DIIS:  cpu time    0.2307: real time    0.2307
    ORTHCH:  cpu time    0.0103: real time    0.0103
       DOS:  cpu time    0.0036: real time    0.0036
    CHARGE:  cpu time    0.1419: real time    0.1419
    MIXING:  cpu time    0.0097: real time    0.0101
    --------------------------------------------
      LOOP:  cpu time    3.2428: real time    3.2944

 eigenvalue-minimisations  :  2616
 total energy-change (2. order) :-0.9095396E-04  (-0.1054068E-03)
 number of electron     107.9999934 magnetization       0.6968355
 augmentation part       17.2595803 magnetization       0.2829026

 Broyden mixing:
  rms(total) = 0.33984E-01    rms(broyden)= 0.33981E-01
  rms(prec ) = 0.36582E-01
  weight for this iteration     100.00

 eigenvalues of (default mixing * dielectric matrix)
  average eigenvalue GAMMA=   3.6034
 20.2203 11.5690 11.5690  5.6044  4.2737  2.5482  2.5482  1.8654  1.6433  1.3165
  1.0150  1.0150  1.0316  0.9128  0.9128  0.9558  0.9558  0.7199  0.7199  0.6717

 Free energy of the ion-electron system (eV)
  ---------------------------------------------------
  alpha Z        PSCENC =       366.21720178
  Ewald energy   TEWEN  =     -5162.99900314
  -Hartree energ DENC   =     -2473.50910749
  -exchange      EXHF   =         0.00000000
  -V(xc)+E(xc)   XCENC  =       268.54491822
  PAW double counting   =      9675.50071440    -9554.69270668
  entropy T*S    EENTRO =        -0.01681333
  eigenvalues    EBANDS =      -647.60189704
  atomic energy  EATOM  =      7429.07371459
  Solvation  Ediel_sol  =         0.00000000
  ---------------------------------------------------
  free energy    TOTEN  =       -99.48297869 eV

  energy without entropy =      -99.46616536  energy(sigma->0) =      -99.47457203


--------------------------------------------------------------------------------------------------------




--------------------------------------- Iteration      1(  26)  ---------------------------------------


    POTLOK:  cpu time    0.0415: real time    0.0869
    SETDIJ:  cpu time    2.6429: real time    2.6429
    EDDIAG:  cpu time    0.1633: real time    0.1633
  RMM-DIIS:  cpu time    0.2281: real time    0.2281
    ORTHCH:  cpu time    0.0103: real time    0.0103
[...]
     14      -7.4673      1.00000
     15      -7.1912      1.00000
     16      -7.1912      1.00000
     17      -7.0432      1.00000
     18      -7.0432      1.00000
     19      -5.4785      1.00000
     20      -5.4785      1.00000
     21      -5.3885      1.00000
     22      -5.3885      1.00000
     23      -5.3393      1.00000
     24      -5.3393      1.00000
     25      -4.7676      1.00000
     26      -4.7676      1.00000
     27      -4.6635      1.00000
     28      -4.6635      1.00000
     29      -4.6096      1.00000
     30      -4.6096      1.00000
     31      -3.9593      1.00000
     32      -3.9593      1.00000
     33      -3.2807      1.00000
     34      -3.2807      1.00000
     35      -2.3373      1.00000
     36      -2.3373      1.00000
     37      -1.0500      1.00000
     38      -1.0500      1.00000
     39      -0.7690      1.00000
     40      -0.7690      1.00000
     41       0.0274      1.00000
     42       0.0274      1.00000
     43       0.0949      1.00000
     44       0.0949      1.00000
     45       0.2158      1.00000
     46       0.2158      1.00000
     47       0.4843      1.00000
     48       0.4843      1.00000
     49       1.3067      1.00000
     50       1.3067      1.00000
     51       1.8216      0.00191
     52       1.8216      0.00191
     53       2.0700      0.00000
     54       2.0700      0.00000
     55       2.0912      0.00000
     56       2.0912      0.00000
     57       2.5377      0.00000
     58       2.5377      0.00000
     59       2.7208      0.00000
     60       2.7208      0.00000
     61       3.0147      0.00000
     62       3.0147      0.00000
     63       6.3895      0.00000
     64       6.3895      0.00000
     65       6.6822      0.00000
     66       6.6822      0.00000
     67       8.3302      0.00000
     68       8.3302      0.00000
     69      10.5329      0.00000
     70      10.5329      0.00000
     71      11.0208      0.00000
     72      11.0208      0.00000

 k-point     9 :       0.5000    0.5000    0.4000
  band No.  band energies     occupation 
      1     -16.9347      1.00000
      2     -16.9347      1.00000
      3     -16.9317      1.00000
      4     -16.9317      1.00000
      5     -16.6030      1.00000
      6     -16.6030      1.00000
      7     -16.6023      1.00000
      8     -16.6023      1.00000
      9     -16.4937      1.00000
     10     -16.4937      1.00000
     11     -16.4915      1.00000
     12     -16.4915      1.00000
     13      -7.1969      1.00000
     14      -7.1969      1.00000
     15      -7.1961      1.00000
     16      -7.1961      1.00000
     17      -5.7183      1.00000
     18      -5.7183      1.00000
     19      -5.6786      1.00000
     20      -5.6786      1.00000
     21      -5.2411      1.00000
     22      -5.2411      1.00000
     23      -5.1867      1.00000
     24      -5.1867      1.00000
     25      -4.7138      1.00000
     26      -4.7138      1.00000
     27      -4.6988      1.00000
     28      -4.6988      1.00000
     29      -4.6532      1.00000
     30      -4.6532      1.00000
     31      -4.5835      1.00000
     32      -4.5835      1.00000
     33      -4.0392      1.00000
     34      -4.0392      1.00000
     35      -3.9894      1.00000
     36      -3.9894      1.00000
     37      -0.1733      1.00000
     38      -0.1733      1.00000
     39      -0.1694      1.00000
     40      -0.1694      1.00000
     41      -0.0010      1.00000
     42      -0.0010      1.00000
     43       0.0681      1.00000
     44       0.0681      1.00000
     45       0.2112      1.00000
     46       0.2112      1.00000
     47       0.2358      1.00000
     48       0.2358      1.00000
     49       1.6248      0.99627
     50       1.6248      0.99627
     51       1.7022      0.68620
     52       1.7022      0.68620
     53       2.0250      0.00000
     54       2.0250      0.00000
     55       2.0321      0.00000
     56       2.0321      0.00000
     57       2.1569      0.00000
     58       2.1569      0.00000
     59       2.1688      0.00000
     60       2.1688      0.00000
     61       5.7838      0.00000
     62       5.7838      0.00000
     63       5.7859      0.00000
     64       5.7859      0.00000
     65       6.9616      0.00000
     66       6.9616      0.00000
     67       6.9664      0.00000
     68       6.9664      0.00000
     69      10.7844      0.00000
     70      10.7844      0.00000
     71      10.7985      0.00000
     72      10.7985      0.00000


--------------------------------------------------------------------------------------------------------


 soft charge-density along one line, spin component           1
         0         1         2         3         4         5         6         7         8         9
 total charge-density along one line
 
 soft charge-density along one line, spin component           2
         0         1         2         3         4         5         6         7         8         9
 total charge-density along one line
 
 pseudopotential strength for first ion, spin component:           1
 12.844 -15.681   0.002   0.027   0.002  -0.003  -0.033  -0.003
-15.681  19.168  -0.003  -0.034  -0.003   0.004   0.042   0.004
  0.002  -0.003  -9.160  -0.001  -0.001  11.143   0.002   0.001
  0.027  -0.034  -0.001  -9.288  -0.001   0.002  11.312   0.002
  0.002  -0.003  -0.001  -0.001  -9.160   0.001   0.002  11.143
 -0.003   0.004  11.143   0.002   0.001 -13.434  -0.002  -0.001
 -0.033   0.042   0.002  11.312   0.002  -0.002 -13.657  -0.002
 -0.003   0.004   0.001   0.002  11.143  -0.001  -0.002 -13.434
 pseudopotential strength for first ion, spin component:           2
 12.844 -15.681   0.002   0.027   0.002  -0.003  -0.033  -0.003
-15.681  19.168  -0.003  -0.034  -0.003   0.004   0.042   0.004
  0.002  -0.003  -9.160  -0.001  -0.001  11.143   0.002   0.001
  0.027  -0.034  -0.001  -9.288  -0.001   0.002  11.312   0.002
  0.002  -0.003  -0.001  -0.001  -9.160   0.001   0.002  11.143
 -0.003   0.004  11.143   0.002   0.001 -13.433  -0.002  -0.001
 -0.033   0.042   0.002  11.312   0.002  -0.002 -13.657  -0.002
 -0.003   0.004   0.001   0.002  11.143  -0.001  -0.002 -13.433
 total augmentation occupancy for first ion, spin component:           1
  2.452   0.278  -0.008  -0.091  -0.008  -0.002  -0.031  -0.002
  0.278   0.069  -0.009  -0.087  -0.009  -0.001  -0.013  -0.001
 -0.008  -0.009   1.872  -0.002  -0.003   0.129   0.001   0.000
 -0.091  -0.087  -0.002   2.113  -0.002   0.001   0.334   0.001
 -0.008  -0.009  -0.003  -0.002   1.872   0.000   0.001   0.129
 -0.002  -0.001   0.129   0.001   0.000   0.017   0.000   0.000
 -0.031  -0.013   0.001   0.334   0.001   0.000   0.058   0.000
 -0.002  -0.001   0.000   0.001   0.129   0.000   0.000   0.017
 total augmentation occupancy for first ion, spin component:           2
 -0.000   0.000   0.000   0.000   0.000   0.000   0.000   0.000
  0.000   0.000   0.000   0.000   0.000  -0.000  -0.000  -0.000
  0.000   0.000  -0.000   0.000  -0.000  -0.000  -0.000   0.000
  0.000   0.000   0.000  -0.000   0.000  -0.000   0.000  -0.000
  0.000   0.000  -0.000   0.000  -0.000   0.000  -0.000  -0.000
  0.000  -0.000  -0.000  -0.000   0.000  -0.000  -0.000   0.000
  0.000  -0.000  -0.000   0.000  -0.000  -0.000   0.000  -0.000
  0.000  -0.000   0.000  -0.000  -0.000   0.000  -0.000  -0.000


------------------------ aborting loop because EDIFF is reached ----------------------------------------


 


 total charge     
 
# of ion       s       p       d       tot
------------------------------------------
    1        1.571   3.388   0.000   4.960
    2        1.571   3.388   0.000   4.960
    3        1.571   3.388   0.000   4.960
    4        1.571   3.388   0.000   4.960
    5        1.571   3.509   0.000   5.080
    6        1.571   3.509   0.000   5.080
    7        1.556   3.334   0.000   4.889
    8        1.556   3.334   0.000   4.889
    9        1.571   3.509   0.000   5.080
   10        1.571   3.509   0.000   5.080
   11        1.556   3.334   0.000   4.889
   12        1.556   3.334   0.000   4.889
   13        0.671   1.047   6.659   8.376
   14        0.671   1.047   6.659   8.376
   15        0.671   1.047   6.659   8.376
   16        0.671   1.047   6.659   8.376
--------------------------------------------------
tot         21.474  45.111  26.635  93.220
 


 magnetization (x)
 
# of ion       s       p       d       tot
------------------------------------------
    1        0.000  -0.000   0.000   0.000
    2        0.000  -0.000   0.000   0.000
    3        0.000  -0.000   0.000   0.000
    4        0.000  -0.000   0.000   0.000
    5        0.000   0.010   0.000   0.010
    6        0.000   0.010   0.000   0.010
    7        0.000   0.009   0.000   0.010
    8        0.000   0.009   0.000   0.010
    9        0.000   0.010   0.000   0.010
   10        0.000   0.010   0.000   0.010
   11        0.000   0.009   0.000   0.010
   12        0.000   0.009   0.000   0.010
   13       -0.000   0.000   0.025   0.025
   14       -0.000   0.000   0.025   0.025
   15       -0.000   0.000   0.025   0.025
   16       -0.000   0.000   0.025   0.025
--------------------------------------------------
tot          0.003   0.077   0.101   0.181
 
    CHARGE:  cpu time    0.1399: real time    0.1399
    FORLOC:  cpu time    0.0025: real time    0.0025
    FORNL :  cpu time    0.1397: real time    0.1398
    STRESS:  cpu time    0.4217: real time    0.4217
    FORCOR:  cpu time    0.0377: real time    0.0377
    FORHAR:  cpu time    0.0051: real time    0.0050
    MIXING:  cpu time    0.0053: real time    0.0053
    OFIELD:  cpu time    0.0001: real time    0.0001

  FORCE on cell =-STRESS in cart. coord.  units (eV):
  Direction    XX          YY          ZZ          XY          YZ          ZX
  --------------------------------------------------------------------------------------
  Alpha Z   380.89407   380.89407   380.89407
  Ewald   -1729.27879 -1729.27879 -1772.52843    -0.00000    -0.00000    -0.00000
  Hartree   830.36477   830.36477   783.66436    -0.00000    -0.00000    -0.00000
  E(xc)    -520.92047  -520.92047  -520.56846    -0.00000    -0.00000    -0.00000
  Local    -935.76975  -935.76975  -833.81157     0.00000    -0.00000     0.00000
  n-local  -272.25995  -288.21327  -282.20499    -0.00000     0.00000     0.00000
  augment   232.36432   232.36432   228.65380    -0.00000    -0.00000     0.00000
  Kinetic  2023.46345  2024.58507  2012.62331     0.00000     0.00000    -0.00000
  Fock        0.00000     0.00000     0.00000     0.00000     0.00000     0.00000
  -------------------------------------------------------------------------------------
  Total       1.44180     1.44180    -3.27791     0.00000     0.00000     0.00000
  in kB      10.38260    10.38260   -23.60463     0.00000     0.00000     0.00000
  external pressure =       -0.95 kB  Pullay stress =        0.00 kB


 VOLUME and BASIS-vectors are now :
 -----------------------------------------------------------------------------
  energy-cutoff  :      600.00
  volume of cell :      222.49
      direct lattice vectors                 reciprocal lattice vectors
     7.604104522  0.000000000  0.000000000     0.131507924  0.000000000  0.000000000
     0.000000000  7.604104522  0.000000000     0.000000000  0.131507924  0.000000000
     0.000000000  0.000000000  3.847818856     0.000000000  0.000000000  0.259887494

  length of vectors
     7.604104522  7.604104522  3.847818856     0.131507924  0.131507924  0.259887494


 FORCES acting on ions
    electron-ion (+dipol)            ewald-force                    non-local-force                 convergence-correction
 -----------------------------------------------------------------------------------------------
   -.221E+01 -.221E+01 -.316E+02   0.341E+01 0.341E+01 0.442E+02   -.116E+01 -.116E+01 -.113E+02   -.127E-02 -.127E-02 0.486E-03
   0.221E+01 0.221E+01 -.316E+02   -.341E+01 -.341E+01 0.442E+02   0.116E+01 0.116E+01 -.113E+02   0.127E-02 0.127E-02 0.486E-03
   -.221E+01 0.221E+01 0.316E+02   0.341E+01 -.341E+01 -.442E+02   -.116E+01 0.116E+01 0.113E+02   -.127E-02 0.127E-02 -.486E-03
   0.221E+01 -.221E+01 0.316E+02   -.341E+01 0.341E+01 -.442E+02   0.116E+01 -.116E+01 0.113E+02   0.127E-02 -.127E-02 -.486E-03
   -.131E+02 0.133E+01 0.801E+00   0.180E+02 -.187E+01 -.133E+01   -.448E+01 0.567E+00 0.503E+00   -.121E-02 0.243E-02 0.465E-03
   0.131E+02 -.133E+01 0.801E+00   -.180E+02 0.187E+01 -.133E+01   0.448E+01 -.567E+00 0.503E+00   0.121E-02 -.243E-02 0.465E-03
   0.133E+01 0.131E+02 -.801E+00   -.187E+01 -.180E+02 0.133E+01   0.567E+00 0.448E+01 -.503E+00   0.243E-02 0.121E-02 -.465E-03
   -.133E+01 -.131E+02 -.801E+00   0.187E+01 0.180E+02 0.133E+01   -.567E+00 -.448E+01 -.503E+00   -.243E-02 -.121E-02 -.465E-03
   0.131E+02 0.133E+01 -.801E+00   -.180E+02 -.187E+01 0.133E+01   0.448E+01 0.567E+00 -.503E+00   0.121E-02 0.243E-02 -.465E-03
   -.131E+02 -.133E+01 -.801E+00   0.180E+02 0.187E+01 0.133E+01   -.448E+01 -.567E+00 -.503E+00   -.121E-02 -.243E-02 -.465E-03
   -.133E+01 0.131E+02 0.801E+00   0.187E+01 -.180E+02 -.133E+01   -.567E+00 0.448E+01 0.503E+00   -.243E-02 0.121E-02 0.465E-03
   0.133E+01 -.131E+02 0.801E+00   -.187E+01 0.180E+02 -.133E+01   0.567E+00 -.448E+01 0.503E+00   0.243E-02 -.121E-02 0.465E-03
   -.337E+01 -.337E+01 0.528E+01   0.328E+01 0.328E+01 -.561E+01   0.735E+00 0.735E+00 -.171E+01   -.193E-02 -.193E-02 0.193E-03
   0.337E+01 0.337E+01 0.528E+01   -.328E+01 -.328E+01 -.561E+01   -.735E+00 -.735E+00 -.171E+01   0.193E-02 0.193E-02 0.193E-03
   -.337E+01 0.337E+01 -.528E+01   0.328E+01 -.328E+01 0.561E+01   0.735E+00 -.735E+00 0.171E+01   -.193E-02 0.193E-02 -.193E-03
   0.337E+01 -.337E+01 -.528E+01   -.328E+01 0.328E+01 0.561E+01   -.735E+00 0.735E+00 0.171E+01   0.193E-02 -.193E-02 -.193E-03
 -----------------------------------------------------------------------------------------------
   -.158E-05 -.158E-05 -.528E-07   0.622E-14 0.444E-15 0.355E-14   0.000E+00 0.178E-14 -.222E-15   -.484E-12 0.183E-12 0.600E-13
 
 
 POSITION                                       TOTAL-FORCE (eV/Angst)
 -----------------------------------------------------------------------------------
      5.66171      1.85966      1.95369         0.039106      0.039106      1.250201
      1.94239      5.74444      1.95369        -0.039106     -0.039106      1.250201
      1.85966      1.94239      1.89413         0.039106     -0.039106     -1.250201
      5.74444      5.66171      1.89413        -0.039106      0.039106     -1.250201
      3.83399      5.70437      0.00435         0.497649      0.032372     -0.026826
      3.77012      1.89973      0.00435        -0.497649     -0.032372     -0.026826
      5.70437      3.77012      3.84347         0.032372     -0.497649      0.026826
      1.89973      3.83399      3.84347        -0.032372      0.497649      0.026826
      7.57217      1.90232      3.84347        -0.497649      0.032372      0.026826
      0.03194      5.70179      3.84347         0.497649     -0.032372      0.026826
      5.70179      7.57217      0.00435        -0.032372     -0.497649     -0.026826
      1.90232      0.03194      0.00435         0.032372      0.497649     -0.026826
      5.62833      1.82628      0.13806         0.644410      0.644410     -2.042407
      1.97577      5.77783      0.13806        -0.644410     -0.644410     -2.042407
      1.82628      1.97577      3.70976         0.644410     -0.644410      2.042407
      5.77783      5.62833      3.70976        -0.644410      0.644410      2.042407
 -----------------------------------------------------------------------------------
    total drift:                               -0.000002     -0.000002     -0.000000


--------------------------------------------------------------------------------------------------------



  FREE ENERGIE OF THE ION-ELECTRON SYSTEM (eV)
  ---------------------------------------------------
  free  energy   TOTEN  =       -99.67184906 eV

  energy  without entropy=      -99.65520732  energy(sigma->0) =      -99.66352819
 
 d Force = 0.0000000E+00[ 0.000E+00, 0.000E+00]  d Energy = 0.1705439E-01-0.171E-01
 d Force = 0.0000000E+00[ 0.000E+00, 0.000E+00]  d Ewald  =-0.2146726E+02 0.215E+02


--------------------------------------------------------------------------------------------------------


    POTLOK:  cpu time    2.6777: real time    2.6777


--------------------------------------------------------------------------------------------------------


 stress matrix after NEB project (eV)
      1.44180      0.00000      0.00000
      0.00000      1.44180      0.00000
     -0.00000      0.00000     -3.27791
  FORCES: max atom, RMS     2.236505    1.329178
  FORCE total and by dimension    5.316713    2.042407
  Stress total and by dimension    3.860351    3.277912


--------------------------------------------------------------------------------------------------------


  
 reached required accuracy - stopping structural energy minimisation
 writing wavefunctions
     LOOP+:  cpu time   57.1405: real time   64.9345
    4ORBIT:  cpu time    0.0000: real time    0.0000
 


 total charge     
 
# of ion       s       p       d       tot
------------------------------------------
    1        1.571   3.388   0.000   4.960
    2        1.571   3.388   0.000   4.960
    3        1.571   3.388   0.000   4.960
    4        1.571   3.388   0.000   4.960
    5        1.571   3.509   0.000   5.080
    6        1.571   3.509   0.000   5.080
    7        1.556   3.334   0.000   4.889
    8        1.556   3.334   0.000   4.889
    9        1.571   3.509   0.000   5.080
   10        1.571   3.509   0.000   5.080
   11        1.556   3.334   0.000   4.889
   12        1.556   3.334   0.000   4.889
   13        0.671   1.047   6.659   8.376
   14        0.671   1.047   6.659   8.376
   15        0.671   1.047   6.659   8.376
   16        0.671   1.047   6.659   8.376
--------------------------------------------------
tot         21.474  45.111  26.635  93.220
 


 magnetization (x)
 
# of ion       s       p       d       tot
------------------------------------------
    1        0.000  -0.000   0.000   0.000
    2        0.000  -0.000   0.000   0.000
    3        0.000  -0.000   0.000   0.000
    4        0.000  -0.000   0.000   0.000
    5        0.000   0.010   0.000   0.010
    6        0.000   0.010   0.000   0.010
    7        0.000   0.009   0.000   0.010
    8        0.000   0.009   0.000   0.010
    9        0.000   0.010   0.000   0.010
   10        0.000   0.010   0.000   0.010
   11        0.000   0.009   0.000   0.010
   12        0.000   0.009   0.000   0.010
   13       -0.000   0.000   0.025   0.025
   14       -0.000   0.000   0.025   0.025
   15       -0.000   0.000   0.025   0.025
   16       -0.000   0.000   0.025   0.025
--------------------------------------------------
tot          0.003   0.077   0.101   0.181
 

 total amount of memory used by VASP MPI-rank0    37213. kBytes
=======================================================================

   base      :      30000. kBytes
   nonlr-proj:       2357. kBytes
   fftplans  :        621. kBytes
   grid      :       1581. kBytes
   one-center:         62. kBytes
   wavefun   :       2592. kBytes
 
  
  
 General timing and accounting informations for this job:
 ========================================================
  
                  Total CPU time used (sec):      347.057
                            User time (sec):      339.757
                          System time (sec):        7.300
                         Elapsed time (sec):      419.554
  
                   Maximum memory used (kb):      216604.
                   Average memory used (kb):           0.
  
                          Minor page faults:        40521
                          Major page faults:          434
                 Voluntary context switches:         3729
