 vasp.5.4.4.18Apr17-6-g9f103f2a35 (build Aug 21 2019 12:36:18) complex          
  
 executed on IFC18.0.1.163_CrayMP date 2019.08.29  07:30:45
 running on  330 total cores
 distrk:  each k-point on   66 cores,    5 groups
 distr:  one band on NCORES_PER_BAND=  11 cores,    6 groups


--------------------------------------------------------------------------------------------------------


 INCAR:
 POTCAR:    PAW_PBE O 08Apr2002                   
 POTCAR:    PAW_PBE Ir 06Sep2000                  

 ----------------------------------------------------------------------------- 
|                                                                             |
|           W    W    AA    RRRRR   N    N  II  N    N   GGGG   !!!           |
|           W    W   A  A   R    R  NN   N  II  NN   N  G    G  !!!           |
|           W    W  A    A  R    R  N N  N  II  N N  N  G       !!!           |
|           W WW W  AAAAAA  RRRRR   N  N N  II  N  N N  G  GGG   !            |
|           WW  WW  A    A  R   R   N   NN  II  N   NN  G    G                |
|           W    W  A    A  R    R  N    N  II  N    N   GGGG   !!!           |
|                                                                             |
|      You have enabled k-point parallelism (KPAR>1).                         |
|      This developmental code was originally  written by Paul Kent at ORNL,  |
|      and carefully double checked in Vienna.                                |
|      GW as well as linear response parallelism added by Martijn Marsman     |
|      and Georg Kresse.                                                      |
|      Carefully verify results versus KPAR=1.                                |
|      Report problems to Paul Kent and Vienna.                               |
|                                                                             |
 ----------------------------------------------------------------------------- 

 POTCAR:    PAW_PBE O 08Apr2002                   
   VRHFIN =O: s2p4                                                              
   LEXCH  = PE                                                                  
   EATOM  =   432.3788 eV,   31.7789 Ry                                         
                                                                                
   TITEL  = PAW_PBE O 08Apr2002                                                 
   LULTRA =        F    use ultrasoft PP ?                                      
   IUNSCR =        1    unscreen: 0-lin 1-nonlin 2-no                           
   RPACOR =    1.200    partial core radius                                     
   POMASS =   16.000; ZVAL   =    6.000    mass and valenz                      
   RCORE  =    1.520    outmost cutoff radius                                   
   RWIGS  =    1.550; RWIGS  =    0.820    wigner-seitz radius (au A)           
   ENMAX  =  400.000; ENMIN  =  300.000 eV                                      
   ICORE  =        2    local potential                                         
   LCOR   =        T    correct aug charges                                     
   LPAW   =        T    paw PP                                                  
   EAUG   =  605.392                                                            
   DEXC   =    0.000                                                            
   RMAX   =    1.553    core radius for proj-oper                               
   RAUG   =    1.300    factor for augmentation sphere                          
   RDEP   =    1.550    radius for radial grids                                 
   RDEPT  =    1.329    core radius for aug-charge                              
                                                                                
   Atomic configuration                                                         
    4 entries                                                                   
     n  l   j            E        occ.                                          
     1  0  0.50      -514.6923   2.0000                                         
     2  0  0.50       -23.9615   2.0000                                         
     2  1  0.50        -9.0305   4.0000                                         
     3  2  1.50        -9.5241   0.0000                                         
   Description                                                                  
     l       E           TYP  RCUT    TYP  RCUT                                 
     0    -23.9615318     23  1.200                                             
     0     -9.5240782     23  1.200                                             
     1     -9.0304911     23  1.520                                             
     1      8.1634956     23  1.520                                             
     2     -9.5240782      7  1.500                                             
  local pseudopotential read in
  partial core-charges read in
  partial kinetic energy density read in
  kinetic energy density of atom read in
  atomic valenz-charges read in
  non local Contribution for L=           0  read in
    real space projection operators read in
  non local Contribution for L=           0  read in
    real space projection operators read in
  non local Contribution for L=           1  read in
    real space projection operators read in
  non local Contribution for L=           1  read in
    real space projection operators read in
    PAW grid and wavefunctions read in
 
   number of l-projection  operators is LMAX  =           4
   number of lm-projection operators is LMMAX =           8
 
 POTCAR:    PAW_PBE Ir 06Sep2000                  
   VRHFIN =Ir: s1d8                                                             
   LEXCH  = PE                                                                  
   EATOM  =   560.1833 eV,   41.1723 Ry                                         
                                                                                
   TITEL  = PAW_PBE Ir 06Sep2000                                                
   LULTRA =        F    use ultrasoft PP ?                                      
   IUNSCR =        1    unscreen: 0-lin 1-nonlin 2-no                           
   RPACOR =    2.250    partial core radius                                     
   POMASS =  192.220; ZVAL   =    9.000    mass and valenz                      
   RCORE  =    2.600    outmost cutoff radius                                   
   RWIGS  =    2.690; RWIGS  =    1.423    wigner-seitz radius (au A)           
   ENMAX  =  210.864; ENMIN  =  158.148 eV                                      
   RCLOC  =    1.857    cutoff for local pot                                    
   LCOR   =        T    correct aug charges                                     
   LPAW   =        T    paw PP                                                  
   EAUG   =  318.962                                                            
   DEXC   =    0.000                                                            
   RMAX   =    2.667    core radius for proj-oper                               
   RAUG   =    1.300    factor for augmentation sphere                          
   RDEP   =    2.748    radius for radial grids                                 
   RDEPT  =    2.300    core radius for aug-charge                              
                                                                                
   Atomic configuration                                                         
   16 entries                                                                   
     n  l   j            E        occ.                                          
     1  0  0.50    -76100.0449   2.0000                                         
     2  0  0.50    -13308.1683   2.0000                                         
     2  1  1.50    -11558.0021   6.0000                                         
     3  0  0.50     -3110.7274   2.0000                                         
     3  1  1.50     -2599.2109   6.0000                                         
     3  2  2.50     -2037.1515  10.0000                                         
     4  0  0.50      -661.6001   2.0000                                         
     4  1  1.50      -493.8981   6.0000                                         
     4  2  2.50      -288.1909  10.0000                                         
     4  3  3.50       -59.5718  14.0000                                         
     5  0  0.50       -95.3879   2.0000                                         
     5  1  1.50       -52.2747   6.0000                                         
     5  2  2.50        -5.4180   8.0000                                         
     6  0  0.50        -5.5479   1.0000                                         
     6  1  1.50        -6.8029   0.0000                                         
     5  3  2.50        -1.3606   0.0000                                         
   Description                                                                  
     l       E           TYP  RCUT    TYP  RCUT                                 
     2     -5.4179967     23  2.600                                             
     2     -6.7785793     23  2.600                                             
     0     -5.5478636     23  2.600                                             
     0      2.2542272     23  2.600                                             
     1     -2.7211652     23  2.600                                             
     1     20.4087390     23  2.600                                             
  local pseudopotential read in
  partial core-charges read in
  partial kinetic energy density read in
  atomic valenz-charges read in
  non local Contribution for L=           2  read in
    real space projection operators read in
  non local Contribution for L=           2  read in
    real space projection operators read in
  non local Contribution for L=           0  read in
    real space projection operators read in
  non local Contribution for L=           0  read in
    real space projection operators read in
  non local Contribution for L=           1  read in
    real space projection operators read in
  non local Contribution for L=           1  read in
    real space projection operators read in
    PAW grid and wavefunctions read in
 
   number of l-projection  operators is LMAX  =           6
   number of lm-projection operators is LMMAX =          18
 
 Optimization of the real space projectors (new method)

 maximal supplied QI-value         = 24.76
 optimisation between [QCUT,QGAM] = [ 12.38, 25.00] = [ 42.90,175.06] Ry 
 Optimized for a Real-space Cutoff    1.16 Angstroem

   l    n(q)    QCUT    max X(q) W(low)/X(q) W(high)/X(q)  e(spline) 
   0      9    12.378    20.381    0.16E-03    0.67E-05    0.31E-06
   0      9    12.378    15.268    0.17E-03    0.81E-05    0.33E-06
   1      8    12.378     5.964    0.20E-03    0.16E-03    0.30E-06
   1      8    12.378     5.382    0.18E-03    0.14E-03    0.26E-06
 Optimization of the real space projectors (new method)

 maximal supplied QI-value         = 14.36
 optimisation between [QCUT,QGAM] = [ 12.49, 24.99] = [ 43.72,174.87] Ry 
 Optimized for a Real-space Cutoff    1.47 Angstroem

   l    n(q)    QCUT    max X(q) W(low)/X(q) W(high)/X(q)  e(spline) 
   2     10    12.495   134.116    0.21E-03    0.83E-03    0.17E-05
   2     10    12.495   130.192    0.21E-03    0.83E-03    0.17E-05
   0     11    12.495    60.310    0.70E-04    0.17E-03    0.90E-06
   0     11    12.495    39.218    0.65E-04    0.15E-03    0.85E-06
   1     11    12.495    18.439    0.21E-03    0.37E-04    0.78E-06
   1     11    12.495    12.760    0.17E-03    0.26E-04    0.62E-06
  PAW_PBE O 08Apr2002                   :
 energy of atom  1       EATOM= -432.3788
 kinetic energy error for atom=    0.0168 (will be added to EATOM!!)
  PAW_PBE Ir 06Sep2000                  :
 energy of atom  2       EATOM= -560.1833
 kinetic energy error for atom=    0.0008 (will be added to EATOM!!)
 
 
 POSCAR:  O Ir                                   
  positions in cartesian coordinates
  No initial velocities read in
 exchange correlation table for  LEXCH =        8
   RHO(1)=    0.500       N(1)  =     2000
   RHO(2)=  100.500       N(2)  =     4000

 VTST: version 3.2, (02/03/18)

 CHAIN: initializing optimizer
 
 OPT: Using VASP Conjugate-Gradient optimizer
 CHAIN: Read ICHAIN            0
 
 POSCAR:  O Ir                                   
  positions in cartesian coordinates
  No initial velocities read in
 


--------------------------------------------------------------------------------------------------------


 ion  position               nearest neighbor table
   1  0.750  0.250  0.500-  13 1.88  13 1.88
   2  0.250  0.750  0.500-  14 1.88  14 1.88
   3  0.250  0.250  0.500-  15 1.88  15 1.88
   4  0.750  0.750  0.500-  16 1.88  16 1.88
   5  0.500  0.750  0.000-  14 1.91  16 1.91
   6  0.500  0.250  0.000-  13 1.91  15 1.91
   7  0.750  0.500  1.000-  13 1.91  16 1.91
   8  0.250  0.500  1.000-  14 1.91  15 1.91
   9  0.000  0.250  1.000-  13 1.91  15 1.91
  10  1.000  0.750  1.000-  14 1.91  16 1.91
  11  0.750  0.000  0.000-  13 1.91  16 1.91
  12  0.250  1.000  0.000-  14 1.91  15 1.91
  13  0.750  0.250  0.000-   1 1.88   1 1.88   7 1.91   9 1.91  11 1.91   6 1.91
  14  0.250  0.750  0.000-   2 1.88   2 1.88   8 1.91  10 1.91  12 1.91   5 1.91
  15  0.250  0.250  0.000-   3 1.88   3 1.88   8 1.91   9 1.91  12 1.91   6 1.91
  16  0.750  0.750  0.000-   4 1.88   4 1.88   7 1.91  10 1.91  11 1.91   5 1.91
 
  LATTYP: Found a simple tetragonal cell.
 ALAT       =     7.6215000000
 C/A-ratio  =     0.4942202978
  
  Lattice vectors:
  
 A1 = (   7.6215000000,   0.0000000000,   0.0000000000)
 A2 = (   0.0000000000,   7.6215000000,   0.0000000000)
 A3 = (   0.0000000000,   0.0000000000,   3.7667000000)


Analysis of symmetry for initial positions (statically):
=====================================================================
 Subroutine PRICEL returns:
 Original cell was already a primitive cell.
 

 Routine SETGRP: Setting up the symmetry group for a 
 simple tetragonal supercell.


 Subroutine GETGRP returns: Found  8 space group operations
 (whereof  4 operations were pure point group operations)
 out of a pool of 16 trial point group operations.


The static configuration has the point symmetry S_4 .
 The point group associated with its full space group is D_2d.


Analysis of symmetry for dynamics (positions and initial velocities):
=====================================================================
 Subroutine PRICEL returns:
 Original cell was already a primitive cell.
 

 Routine SETGRP: Setting up the symmetry group for a 
 simple tetragonal supercell.


 Subroutine GETGRP returns: Found  8 space group operations
 (whereof  4 operations were pure point group operations)
 out of a pool of 16 trial point group operations.


The dynamic configuration has the point symmetry S_4 .
 The point group associated with its full space group is D_2d.


Analysis of structural, dynamic, and magnetic symmetry:
=====================================================================
 Subroutine PRICEL returns:
 Original cell was already a primitive cell.
 

 Routine SETGRP: Setting up the symmetry group for a 
 simple tetragonal supercell.


 Subroutine GETGRP returns: Found  8 space group operations
 (whereof  4 operations were pure point group operations)
 out of a pool of 16 trial point group operations.


The magnetic configuration has the point symmetry S_4 .
 The point group associated with its full space group is D_2d.


 Subroutine INISYM returns: Found  8 space group operations
 (whereof  4 operations are pure point group operations),
 and found     1 'primitive' translations

 
 
 KPOINTS: KPOINTS created by Atomic Simulation Env

Automatic generation of k-mesh.
Space group operators:
 irot       det(A)        alpha          n_x          n_y          n_z        tau_x        tau_y        tau_z
    1     1.000000     0.000000     1.000000     0.000000     0.000000     0.000000     0.000000     0.000000
    2    -1.000000    90.000000     0.000000     0.000000    -1.000000     0.000000     0.000000     0.000000
    3     1.000000   180.000000     0.000000     0.000000     1.000000     0.000000     0.000000     0.000000
    4    -1.000000    90.000000     0.000000     0.000000     1.000000     0.000000     0.000000     0.000000
    5     1.000000   180.000000     0.000000     1.000000     0.000000     0.500000     0.500000     0.000000
    6    -1.000000   180.000000     0.707107     0.707107     0.000000     0.500000     0.500000     0.000000
    7     1.000000   180.000000     1.000000     0.000000     0.000000     0.500000     0.500000     0.000000
    8    -1.000000   180.000000     0.707107    -0.707107     0.000000     0.500000     0.500000     0.000000
 
 Subroutine IBZKPT returns following result:
 ===========================================
 
 Found      9 irreducible k-points:
 
 Following reciprocal coordinates:
            Coordinates               Weight
  0.000000  0.000000  0.000000      1.000000
  0.500000  0.000000  0.000000      2.000000
  0.500000  0.500000  0.000000      1.000000
  0.000000  0.000000  0.200000      2.000000
  0.500000  0.000000  0.200000      4.000000
  0.500000  0.500000  0.200000      2.000000
  0.000000  0.000000  0.400000      2.000000
  0.500000  0.000000  0.400000      4.000000
  0.500000  0.500000  0.400000      2.000000
 
 Following cartesian coordinates:
            Coordinates               Weight
  0.000000  0.000000  0.000000      1.000000
  0.065604  0.000000  0.000000      2.000000
  0.065604  0.065604  0.000000      1.000000
  0.000000  0.000000  0.053097      2.000000
  0.065604  0.000000  0.053097      4.000000
  0.065604  0.065604  0.053097      2.000000
  0.000000  0.000000  0.106194      2.000000
  0.065604  0.000000  0.106194      4.000000
  0.065604  0.065604  0.106194      2.000000
 


--------------------------------------------------------------------------------------------------------




 Dimension of arrays:
   k-points           NKPTS =      9   k-points in BZ     NKDIM =      9   number of bands    NBANDS=     72
   number of dos      NEDOS =    301   number of ions     NIONS =     16
   non local maximal  LDIM  =      6   non local SUM 2l+1 LMDIM =     18
   total plane-waves  NPLWV = 122880
   max r-space proj   IRMAX =   7534   max aug-charges    IRDMAX=  40806
   dimension x,y,z NGX =    64 NGY =   64 NGZ =   30
   dimension x,y,z NGXF=   128 NGYF=  128 NGZF=   60
   support grid    NGXF=   128 NGYF=  128 NGZF=   60
   ions per type =              12   4
   NGX,Y,Z   is equivalent  to a cutoff of  13.96, 13.96, 13.24 a.u.
   NGXF,Y,Z  is equivalent  to a cutoff of  27.92, 27.92, 26.48 a.u.

 SYSTEM =  unknown system                          
 POSCAR =   O Ir                                   

 Startparameter for this run:
   NWRITE =      2    write-flag & timer
   PREC   = accura    normal or accurate (medium, high low for compatibility)
   ISTART =      0    job   : 0-new  1-cont  2-samecut
   ICHARG =      2    charge: 1-file 2-atom 10-const
   ISPIN  =      2    spin polarized calculation?
   LNONCOLLINEAR =      F non collinear calculations
   LSORBIT =      F    spin-orbit coupling
   INIWAV =      1    electr: 0-lowe 1-rand  2-diag
   LASPH  =      T    aspherical Exc in radial PAW
   METAGGA=      F    non-selfconsistent MetaGGA calc.

 Electronic Relaxation 1
   ENCUT  =  600.0 eV  44.10 Ry    6.64 a.u.  15.22 15.22  7.52*2*pi/ulx,y,z
   ENINI  =  600.0     initial cutoff
   ENAUG  =  605.4 eV  augmentation charge cutoff
   NELM   =    220;   NELMIN=  2; NELMDL= -5     # of ELM steps 
   EDIFF  = 0.1E-05   stopping-criterion for ELM
   LREAL  =      T    real-space projection
   NLSPLINE    = F    spline interpolate recip. space projectors
   LCOMPAT=      F    compatible to vasp.4.4
   GGA_COMPAT  = T    GGA compatible to vasp.4.4-vasp.4.6
   LMAXPAW     = -100 max onsite density
   LMAXMIX     =    6 max onsite mixed and CHGCAR
   VOSKOWN=      0    Vosko Wilk Nusair interpolation
   ROPT   =   -0.00025  -0.00025
 Ionic relaxation
   EDIFFG = -.1E-02   stopping-criterion for IOM
   NSW    =    150    number of steps for IOM
   NBLOCK =      1;   KBLOCK =    150    inner block; outer block 
   IBRION =      2    ionic relax: 0-MD 1-quasi-New 2-CG
   NFREE  =      1    steps in history (QN), initial steepest desc. (CG)
   ISIF   =      3    stress and relaxation
   IWAVPR =     11    prediction:  0-non 1-charg 2-wave 3-comb
   ISYM   =      2    0-nonsym 1-usesym 2-fastsym
   LCORR  =      T    Harris-Foulkes like correction to forces

   POTIM  = 0.0300    time-step for ionic-motion
   TEIN   =    0.0    initial temperature
   TEBEG  =    0.0;   TEEND  =   0.0 temperature during run
   SMASS  =  -3.00    Nose mass-parameter (am)
   estimated Nose-frequenzy (Omega)   =  0.10E-29 period in steps =****** mass=  -0.133E-26a.u.
   SCALEE = 1.0000    scale energy and forces
   NPACO  =    256;   APACO  = 16.0  distance and # of slots for P.C.
   PSTRESS=    0.0 pullay stress

  Mass of Ions in am
   POMASS =  16.00192.22
  Ionic Valenz
   ZVAL   =   6.00  9.00
  Atomic Wigner-Seitz radii
   RWIGS  =  -1.00 -1.00
  virtual crystal weights 
   VCA    =   1.00  1.00
   NELECT =     108.0000    total number of electrons
   NUPDOWN=      -1.0000    fix difference up-down

 DOS related values:
   EMIN   =  10.00;   EMAX   =-10.00  energy-range for DOS
   EFERMI =   0.00
   ISMEAR =     0;   SIGMA  =   0.05  broadening in eV -4-tet -1-fermi 0-gaus

 Electronic relaxation 2 (details)
   IALGO  =     68    algorithm
   LDIAG  =      T    sub-space diagonalisation (order eigenvalues)
   LSUBROT=      F    optimize rotation matrix (better conditioning)
   TURBO    =      0    0=normal 1=particle mesh
   IRESTART =      0    0=no restart 2=restart with 2 vectors
   NREBOOT  =      0    no. of reboots
   NMIN     =      0    reboot dimension
   EREF     =   0.00    reference energy to select bands
   IMIX   =      4    mixing-type and parameters
     AMIX     =   0.20;   BMIX     =  0.00
     AMIX_MAG =   0.10;   BMIX_MAG =  0.00
     AMIN     =   0.10
     WC   =   100.;   INIMIX=   0;  MIXPRE=   1;  MAXMIX= -45

 Intra band minimization:
   WEIMIN = 0.0010     energy-eigenvalue tresh-hold
   EBREAK =  0.35E-08  absolut break condition
   DEPER  =   0.30     relativ break condition  

   TIME   =   0.40     timestep for ELM

  volume/ion in A,a.u.               =      13.67        92.28
  Fermi-wavevector in a.u.,A,eV,Ry     =   1.293805  2.444937 22.775213  1.673931
  Thomas-Fermi vector in A             =   2.425427
 
 Write flags
   LWAVE        =      T    write WAVECAR
   LDOWNSAMPLE  =      F    k-point downsampling of WAVECAR
   LCHARG       =      T    write CHGCAR
   LVTOT        =      F    write LOCPOT, total local potential
   LVHAR        =      F    write LOCPOT, Hartree potential only
   LELF         =      F    write electronic localiz. function (ELF)
   LORBIT       =     11    0 simple, 1 ext, 2 COOP (PROOUT), +10 PAW based schemes


 Dipole corrections
   LMONO  =      F    monopole corrections only (constant potential shift)
   LDIPOL =      F    correct potential (dipole corrections)
   IDIPOL =      0    1-x, 2-y, 3-z, 4-all directions 
   EPSILON=  1.0000000 bulk dielectric constant

 Exchange correlation treatment:
   GGA     =    PE    GGA type
   LEXCH   =     8    internal setting for exchange type
   VOSKOWN=      0    Vosko Wilk Nusair interpolation
   LHFCALC =     F    Hartree Fock is set to
   LHFONE  =     F    Hartree Fock one center treatment
   AEXX    =    0.0000 exact exchange contribution

 Linear response parameters
   LEPSILON=     F    determine dielectric tensor
   LRPA    =     F    only Hartree local field effects (RPA)
   LNABLA  =     F    use nabla operator in PAW spheres
   LVEL    =     F    velocity operator in full k-point grid
   LINTERFAST=   F  fast interpolation
   KINTER  =     0    interpolate to denser k-point grid
   CSHIFT  =0.1000    complex shift for real part using Kramers Kronig
   OMEGAMAX=  -1.0    maximum frequency
   DEG_THRESHOLD= 0.2000000E-02 threshold for treating states as degnerate
   RTIME   =   -0.100 relaxation time in fs
  (WPLASMAI=    0.000 imaginary part of plasma frequency in eV, 0.658/RTIME)
   DFIELD  = 0.0000000 0.0000000 0.0000000 field for delta impulse in time
 
 Orbital magnetization related:
   ORBITALMAG=     F  switch on orbital magnetization
   LCHIMAG   =     F  perturbation theory with respect to B field
   DQ        =  0.001000  dq finite difference perturbation B field
   LLRAUG    =     F  two centre corrections for induced B field



--------------------------------------------------------------------------------------------------------


 conjugate gradient relaxation of ions
 charge density and potential will be updated during run
 spin polarized calculation
 RMM-DIIS sequential band-by-band and
  variant of blocked Davidson during initial phase
 perform sub-space diagonalisation
    before iterative eigenvector-optimisation
 modified Broyden-mixing scheme, WC =      100.0
 initial mixing is a simple linear mixing with ALPHA =  0.2000
 Hartree-type preconditioning will be used
 using additional bands           18
 real space projection scheme for non local part
 use partial core corrections
 calculate Harris-corrections to forces 
   (improved forces if not selfconsistent)
 use gradient corrections 
 use of overlap-Matrix (Vanderbilt PP)
 Gauss-broadening in eV      SIGMA  =   0.05


--------------------------------------------------------------------------------------------------------


  energy-cutoff  :      600.00
  volume of cell :      218.80
      direct lattice vectors                 reciprocal lattice vectors
     7.621500000  0.000000000  0.000000000     0.131207767  0.000000000  0.000000000
     0.000000000  7.621500000  0.000000000     0.000000000  0.131207767  0.000000000
     0.000000000  0.000000000  3.766700000     0.000000000  0.000000000  0.265484376

  length of vectors
     7.621500000  7.621500000  3.766700000     0.131207767  0.131207767  0.265484376


 
 k-points in units of 2pi/SCALE and weight: KPOINTS created by Atomic Simulation Env
   0.00000000  0.00000000  0.00000000       0.050
   0.06560388  0.00000000  0.00000000       0.100
   0.06560388  0.06560388  0.00000000       0.050
   0.00000000  0.00000000  0.05309688       0.100
   0.06560388  0.00000000  0.05309688       0.200
   0.06560388  0.06560388  0.05309688       0.100
   0.00000000  0.00000000  0.10619375       0.100
   0.06560388  0.00000000  0.10619375       0.200
   0.06560388  0.06560388  0.10619375       0.100
 
 k-points in reciprocal lattice and weights: KPOINTS created by Atomic Simulation Env
   0.00000000  0.00000000  0.00000000       0.050
   0.50000000  0.00000000  0.00000000       0.100
   0.50000000  0.50000000  0.00000000       0.050
   0.00000000  0.00000000  0.20000000       0.100
   0.50000000  0.00000000  0.20000000       0.200
   0.50000000  0.50000000  0.20000000       0.100
   0.00000000  0.00000000  0.40000000       0.100
   0.50000000  0.00000000  0.40000000       0.200
   0.50000000  0.50000000  0.40000000       0.100
 
 position of ions in fractional coordinates (direct lattice) 
   0.75007000  0.25007000  0.50000000
   0.24993000  0.74993000  0.50000000
   0.25007000  0.24993000  0.50000000
   0.74993000  0.75007000  0.50000000
   0.49996000  0.75000000  0.00002000
   0.50004000  0.25000000  0.00002000
   0.75000000  0.50004000  0.99998000
   0.25000000  0.49996000  0.99998000
   0.00004000  0.25000000  0.99998000
   0.99996000  0.75000000  0.99998000
   0.75000000  0.00004000  0.00002000
   0.25000000  0.99996000  0.00002000
   0.75004000  0.25004000  0.00000000
   0.24996000  0.74996000  0.00000000
   0.25004000  0.24996000  0.00000000
   0.74996000  0.75004000  0.00000000
 
 position of ions in cartesian coordinates  (Angst):
   5.71665851  1.90590851  1.88335000
   1.90484149  5.71559149  1.88335000
   1.90590851  1.90484149  1.88335000
   5.71559149  5.71665851  1.88335000
   3.81044514  5.71612500  0.00007533
   3.81105486  1.90537500  0.00007533
   5.71612500  3.81105486  3.76662467
   1.90537500  3.81044514  3.76662467
   0.00030486  1.90537500  3.76662467
   7.62119514  5.71612500  3.76662467
   5.71612500  0.00030486  0.00007533
   1.90537500  7.62119514  0.00007533
   5.71642986  1.90567986  0.00000000
   1.90507014  5.71582014  0.00000000
   1.90567986  1.90507014  0.00000000
   5.71582014  5.71642986  0.00000000
 


--------------------------------------------------------------------------------------------------------


 k-point  1 :   0.0000 0.0000 0.0000  plane waves:    7283
 k-point  2 :   0.5000 0.0000 0.0000  plane waves:    7334
 k-point  3 :   0.5000 0.5000 0.0000  plane waves:    7308
 k-point  4 :   0.0000 0.0000 0.2000  plane waves:    7307
 k-point  5 :   0.5000 0.0000 0.2000  plane waves:    7328
 k-point  6 :   0.5000 0.5000 0.2000  plane waves:    7320
 k-point  7 :   0.0000 0.0000 0.4000  plane waves:    7295
 k-point  8 :   0.5000 0.0000 0.4000  plane waves:    7264
 k-point  9 :   0.5000 0.5000 0.4000  plane waves:    7280

 maximum and minimum number of plane-waves per node :       698      624

 maximum number of plane-waves:      7334
 maximum index in each direction: 
   IXMAX=   15   IYMAX=   15   IZMAX=    7
   IXMIN=  -15   IYMIN=  -15   IZMIN=   -7


 real space projection operators:
  total allocation   :       6798.94 KBytes
  max/ min on nodes  :        654.56        586.25


 parallel 3D FFT for wavefunctions:
    minimum data exchange during FFTs selected (reduces bandwidth)
 parallel 3D FFT for charge:
    minimum data exchange during FFTs selected (reduces bandwidth)


 total amount of memory used by VASP MPI-rank0    38485. kBytes
=======================================================================

   base      :      30000. kBytes
   nonlr-proj:       2850. kBytes
   fftplans  :        890. kBytes
   grid      :       2195. kBytes
   one-center:         62. kBytes
   wavefun   :       2488. kBytes
 
     INWAV:  cpu time    0.0002: real time    0.0002
 Broyden mixing: mesh for mixing (old mesh)
   NGX = 31   NGY = 31   NGZ = 15
  (NGX  =128   NGY  =128   NGZ  = 60)
  gives a total of  14415 points

 initial charge density was supplied:
 charge density of overlapping atoms calculated
 number of electron     108.0000000 magnetization      16.0000000
 keeping initial charge density in first step


--------------------------------------------------------------------------------------------------------


 Maximum index for non-local projection operator          708
 Maximum index for augmentation-charges          435 (set IRDMAX)


--------------------------------------------------------------------------------------------------------


 First call to EWALD:  gamma=   0.294
 Maximum number of real-space cells 2x 2x 4
 Maximum number of reciprocal cells 3x 3x 2

    FEWALD:  cpu time    0.0070: real time    0.0070


--------------------------------------- Iteration      1(   1)  ---------------------------------------


    POTLOK:  cpu time    0.1000: real time    0.8902
    SETDIJ:  cpu time    2.4548: real time    2.4595
     EDDAV:  cpu time    0.6468: real time    0.7496
       DOS:  cpu time    0.0083: real time    0.0121
    --------------------------------------------
      LOOP:  cpu time    3.2100: real time    4.1115

 eigenvalue-minimisations  :  2592
 total energy-change (2. order) : 0.1210980E+04  (-0.5788022E+04)
 number of electron     108.0000000 magnetization      16.0000000
 augmentation part      108.0000000 magnetization      16.0000000

 Free energy of the ion-electron system (eV)
  ---------------------------------------------------
  alpha Z        PSCENC =       387.32278329
  Ewald energy   TEWEN  =     -5258.41375116
  -Hartree energ DENC   =     -2400.55868074
  -exchange      EXHF   =         0.00000000
  -V(xc)+E(xc)   XCENC  =       264.59297542
  PAW double counting   =      6362.12184073    -6222.39335305
  entropy T*S    EENTRO =        -0.00574789
  eigenvalues    EBANDS =       649.24002936
  atomic energy  EATOM  =      7429.07371459
  Solvation  Ediel_sol  =         0.00000000
  ---------------------------------------------------
  free energy    TOTEN  =      1210.97981056 eV

  energy without entropy =     1210.98555845  energy(sigma->0) =     1210.98268450


--------------------------------------------------------------------------------------------------------




--------------------------------------- Iteration      1(   2)  ---------------------------------------


     EDDAV:  cpu time    0.6410: real time    0.8898
       DOS:  cpu time    0.0041: real time    0.0041
    --------------------------------------------
      LOOP:  cpu time    0.6450: real time    0.8939

 eigenvalue-minimisations  :  2628
 total energy-change (2. order) :-0.1179560E+04  (-0.1119654E+04)
 number of electron     108.0000000 magnetization      16.0000000
 augmentation part      108.0000000 magnetization      16.0000000

 Free energy of the ion-electron system (eV)
  ---------------------------------------------------
  alpha Z        PSCENC =       387.32278329
  Ewald energy   TEWEN  =     -5258.41375116
  -Hartree energ DENC   =     -2400.55868074
  -exchange      EXHF   =         0.00000000
  -V(xc)+E(xc)   XCENC  =       264.59297542
  PAW double counting   =      6362.12184073    -6222.39335305
  entropy T*S    EENTRO =        -0.01341142
  eigenvalues    EBANDS =      -530.31194221
  atomic energy  EATOM  =      7429.07371459
  Solvation  Ediel_sol  =         0.00000000
  ---------------------------------------------------
  free energy    TOTEN  =        31.42017545 eV

  energy without entropy =       31.43358688  energy(sigma->0) =       31.42688117


--------------------------------------------------------------------------------------------------------




--------------------------------------- Iteration      1(   3)  ---------------------------------------


     EDDAV:  cpu time    0.7814: real time    0.8947
       DOS:  cpu time    0.0037: real time    0.0037
    --------------------------------------------
      LOOP:  cpu time    0.7851: real time    0.8984

 eigenvalue-minimisations  :  3492
 total energy-change (2. order) :-0.1610943E+03  (-0.1527312E+03)
 number of electron     108.0000000 magnetization      16.0000000
 augmentation part      108.0000000 magnetization      16.0000000

 Free energy of the ion-electron system (eV)
  ---------------------------------------------------
  alpha Z        PSCENC =       387.32278329
  Ewald energy   TEWEN  =     -5258.41375116
  -Hartree energ DENC   =     -2400.55868074
  -exchange      EXHF   =         0.00000000
  -V(xc)+E(xc)   XCENC  =       264.59297542
  PAW double counting   =      6362.12184073    -6222.39335305
  entropy T*S    EENTRO =        -0.01248945
  eigenvalues    EBANDS =      -691.40711705
  atomic energy  EATOM  =      7429.07371459
  Solvation  Ediel_sol  =         0.00000000
  ---------------------------------------------------
  free energy    TOTEN  =      -129.67407742 eV

  energy without entropy =     -129.66158796  energy(sigma->0) =     -129.66783269


--------------------------------------------------------------------------------------------------------




--------------------------------------- Iteration      1(   4)  ---------------------------------------


     EDDAV:  cpu time    0.6564: real time    0.7081
       DOS:  cpu time    0.0037: real time    0.0037
    --------------------------------------------
      LOOP:  cpu time    0.6601: real time    0.7117

 eigenvalue-minimisations  :  2844
 total energy-change (2. order) :-0.5672059E+01  (-0.5634835E+01)
 number of electron     108.0000000 magnetization      16.0000000
 augmentation part      108.0000000 magnetization      16.0000000

 Free energy of the ion-electron system (eV)
  ---------------------------------------------------
  alpha Z        PSCENC =       387.32278329
  Ewald energy   TEWEN  =     -5258.41375116
  -Hartree energ DENC   =     -2400.55868074
  -exchange      EXHF   =         0.00000000
  -V(xc)+E(xc)   XCENC  =       264.59297542
  PAW double counting   =      6362.12184073    -6222.39335305
  entropy T*S    EENTRO =        -0.01692942
  eigenvalues    EBANDS =      -697.07473572
  atomic energy  EATOM  =      7429.07371459
  Solvation  Ediel_sol  =         0.00000000
  ---------------------------------------------------
  free energy    TOTEN  =      -135.34613606 eV

  energy without entropy =     -135.32920664  energy(sigma->0) =     -135.33767135


--------------------------------------------------------------------------------------------------------




--------------------------------------- Iteration      1(   5)  ---------------------------------------


     EDDAV:  cpu time    0.7223: real time    0.7819
       DOS:  cpu time    0.0043: real time    0.0043
    CHARGE:  cpu time    0.1583: real time    0.1647
    MIXING:  cpu time    0.0103: real time    0.0148
    --------------------------------------------
      LOOP:  cpu time    0.8953: real time    0.9658

 eigenvalue-minimisations  :  3180
 total energy-change (2. order) :-0.1586350E+00  (-0.1585604E+00)
 number of electron     108.0000023 magnetization      14.7257620
 augmentation part       15.9583749 magnetization      12.8979495

 Broyden mixing:
  rms(total) = 0.10291E+02    rms(broyden)= 0.10291E+02
  rms(prec ) = 0.11392E+02
  weight for this iteration     100.00

 Free energy of the ion-electron system (eV)
  ---------------------------------------------------
  alpha Z        PSCENC =       387.32278329
  Ewald energy   TEWEN  =     -5258.41375116
  -Hartree energ DENC   =     -2400.55868074
  -exchange      EXHF   =         0.00000000
  -V(xc)+E(xc)   XCENC  =       264.59297542
  PAW double counting   =      6362.12184073    -6222.39335305
  entropy T*S    EENTRO =        -0.01704932
  eigenvalues    EBANDS =      -697.23325086
  atomic energy  EATOM  =      7429.07371459
  Solvation  Ediel_sol  =         0.00000000
  ---------------------------------------------------
  free energy    TOTEN  =      -135.50477110 eV

  energy without entropy =     -135.48772178  energy(sigma->0) =     -135.49624644


--------------------------------------------------------------------------------------------------------




--------------------------------------- Iteration      1(   6)  ---------------------------------------


    POTLOK:  cpu time    0.2047: real time    0.2062
    SETDIJ:  cpu time    2.6546: real time    2.6547
    EDDIAG:  cpu time    0.1754: real time    0.1810
  RMM-DIIS:  cpu time    0.2635: real time    0.2692
    ORTHCH:  cpu time    0.0105: real time    0.0105
       DOS:  cpu time    0.0048: real time    0.0047
    CHARGE:  cpu time    0.1538: real time    0.1539
    MIXING:  cpu time    0.0103: real time    0.0142
    --------------------------------------------
      LOOP:  cpu time    3.4777: real time    3.4943

 eigenvalue-minimisations  :  2629
 total energy-change (2. order) : 0.3653507E+02  (-0.4746469E+01)
 number of electron     108.0000020 magnetization      12.9840167
 augmentation part       16.8560531 magnetization      10.4075621

 Broyden mixing:
  rms(total) = 0.55794E+01    rms(broyden)= 0.55794E+01
  rms(prec ) = 0.57446E+01
  weight for this iteration     100.00

 eigenvalues of (default mixing * dielectric matrix)
  average eigenvalue GAMMA=   1.8151
  1.8151

 Free energy of the ion-electron system (eV)
  ---------------------------------------------------
  alpha Z        PSCENC =       387.32278329
  Ewald energy   TEWEN  =     -5258.41375116
  -Hartree energ DENC   =     -2433.86503282
  -exchange      EXHF   =         0.00000000
  -V(xc)+E(xc)   XCENC  =       271.21358700
  PAW double counting   =      7096.90407536    -6963.77880702
  entropy T*S    EENTRO =        -0.02510477
  eigenvalues    EBANDS =      -627.40117017
  atomic energy  EATOM  =      7429.07371459
  Solvation  Ediel_sol  =         0.00000000
  ---------------------------------------------------
  free energy    TOTEN  =       -98.96970570 eV

  energy without entropy =      -98.94460093  energy(sigma->0) =      -98.95715331


--------------------------------------------------------------------------------------------------------




--------------------------------------- Iteration      1(   7)  ---------------------------------------


    POTLOK:  cpu time    0.0753: real time    0.2064
    SETDIJ:  cpu time    2.6540: real time    2.6541
    EDDIAG:  cpu time    0.1749: real time    0.1749
  RMM-DIIS:  cpu time    0.2436: real time    0.2436
    ORTHCH:  cpu time    0.0104: real time    0.0104
       DOS:  cpu time    0.0057: real time    0.0057
    CHARGE:  cpu time    0.1500: real time    0.1500
    MIXING:  cpu time    0.0128: real time    0.0144
    --------------------------------------------
      LOOP:  cpu time    3.3267: real time    3.4594

 eigenvalue-minimisations  :  2599
 total energy-change (2. order) :-0.3071067E+00  (-0.1531840E+01)
 number of electron     108.0000018 magnetization      13.5004043
 augmentation part       17.8971963 magnetization       9.4639651

 Broyden mixing:
  rms(total) = 0.47037E+01    rms(broyden)= 0.47036E+01
  rms(prec ) = 0.48423E+01
  weight for this iteration     100.00

 eigenvalues of (default mixing * dielectric matrix)
  average eigenvalue GAMMA=   1.1448
  1.6362  0.6534

 Free energy of the ion-electron system (eV)
  ---------------------------------------------------
  alpha Z        PSCENC =       387.32278329
  Ewald energy   TEWEN  =     -5258.41375116
  -Hartree energ DENC   =     -2445.01034908
  -exchange      EXHF   =         0.00000000
  -V(xc)+E(xc)   XCENC  =       273.72471559
  PAW double counting   =      8021.66984394    -7894.15156996
  entropy T*S    EENTRO =        -0.03680578
  eigenvalues    EBANDS =      -613.45539380
  atomic energy  EATOM  =      7429.07371459
  Solvation  Ediel_sol  =         0.00000000
  ---------------------------------------------------
  free energy    TOTEN  =       -99.27681237 eV

  energy without entropy =      -99.24000659  energy(sigma->0) =      -99.25840948


--------------------------------------------------------------------------------------------------------




--------------------------------------- Iteration      1(   8)  ---------------------------------------


    POTLOK:  cpu time    0.0785: real time    0.3051
    SETDIJ:  cpu time    2.6539: real time    2.6539
    EDDIAG:  cpu time    0.1710: real time    0.1710
  RMM-DIIS:  cpu time    0.2568: real time    0.2569
    ORTHCH:  cpu time    0.0107: real time    0.0107
       DOS:  cpu time    0.0038: real time    0.0038
    CHARGE:  cpu time    0.1506: real time    0.1506
    MIXING:  cpu time    0.0126: real time    0.0133
    --------------------------------------------
      LOOP:  cpu time    3.3380: real time    3.5655

 eigenvalue-minimisations  :  2659
 total energy-change (2. order) :-0.2308535E+01  (-0.2650431E+00)
 number of electron     108.0000018 magnetization      10.7350532
 augmentation part       18.1328682 magnetization       6.1949185

 Broyden mixing:
  rms(total) = 0.63186E+01    rms(broyden)= 0.63186E+01
  rms(prec ) = 0.65889E+01
  weight for this iteration     100.00

 eigenvalues of (default mixing * dielectric matrix)
  average eigenvalue GAMMA=   1.5327
  2.7935  0.9023  0.9023

 Free energy of the ion-electron system (eV)
  ---------------------------------------------------
  alpha Z        PSCENC =       387.32278329
  Ewald energy   TEWEN  =     -5258.41375116
  -Hartree energ DENC   =     -2447.57788201
  -exchange      EXHF   =         0.00000000
  -V(xc)+E(xc)   XCENC  =       274.37542488
  PAW double counting   =      7714.72815134    -7586.09754936
  entropy T*S    EENTRO =        -0.02995015
  eigenvalues    EBANDS =      -614.96628899
  atomic energy  EATOM  =      7429.07371459
  Solvation  Ediel_sol  =         0.00000000
  ---------------------------------------------------
  free energy    TOTEN  =      -101.58534758 eV

  energy without entropy =     -101.55539743  energy(sigma->0) =     -101.57037250


--------------------------------------------------------------------------------------------------------




--------------------------------------- Iteration      1(   9)  ---------------------------------------


    POTLOK:  cpu time    0.0753: real time    0.2018
    SETDIJ:  cpu time    2.6544: real time    2.6544
    EDDIAG:  cpu time    0.1706: real time    0.1706
  RMM-DIIS:  cpu time    0.2500: real time    0.2500
    ORTHCH:  cpu time    0.0101: real time    0.0101
       DOS:  cpu time    0.0043: real time    0.0043
    CHARGE:  cpu time    0.1514: real time    0.1514
    MIXING:  cpu time    0.0124: real time    0.0127
    --------------------------------------------
      LOOP:  cpu time    3.3286: real time    3.4554

 eigenvalue-minimisations  :  2599
 total energy-change (2. order) : 0.2477713E+01  (-0.2984725E+00)
 number of electron     108.0000017 magnetization       9.8583664
 augmentation part       17.3718273 magnetization       8.4606666

 Broyden mixing:
  rms(total) = 0.23414E+01    rms(broyden)= 0.23412E+01
  rms(prec ) = 0.24520E+01
  weight for this iteration     100.00

 eigenvalues of (default mixing * dielectric matrix)
  average eigenvalue GAMMA=   1.4609
  3.7682  1.0292  0.6523  0.3940

 Free energy of the ion-electron system (eV)
  ---------------------------------------------------
  alpha Z        PSCENC =       387.32278329
  Ewald energy   TEWEN  =     -5258.41375116
  -Hartree energ DENC   =     -2443.95230741
  -exchange      EXHF   =         0.00000000
  -V(xc)+E(xc)   XCENC  =       272.87650635
  PAW double counting   =      9213.68952311    -9090.86484902
  entropy T*S    EENTRO =        -0.02625875
  eigenvalues    EBANDS =      -608.81299591
  atomic energy  EATOM  =      7429.07371459
  Solvation  Ediel_sol  =         0.00000000
  ---------------------------------------------------
  free energy    TOTEN  =       -99.10763492 eV

  energy without entropy =      -99.08137617  energy(sigma->0) =      -99.09450555


--------------------------------------------------------------------------------------------------------




--------------------------------------- Iteration      1(  10)  ---------------------------------------


    POTLOK:  cpu time    0.0843: real time    0.2139
    SETDIJ:  cpu time    2.6536: real time    2.6537
    EDDIAG:  cpu time    0.1712: real time    0.1712
  RMM-DIIS:  cpu time    0.2521: real time    0.2521
    ORTHCH:  cpu time    0.0106: real time    0.0106
       DOS:  cpu time    0.0037: real time    0.0037
    CHARGE:  cpu time    0.1522: real time    0.1522
    MIXING:  cpu time    0.0087: real time    0.0087
    --------------------------------------------
      LOOP:  cpu time    3.3363: real time    3.4661

 eigenvalue-minimisations  :  2603
 total energy-change (2. order) : 0.2775308E-01  (-0.4304189E-01)
 number of electron     108.0000018 magnetization       7.9310481
 augmentation part       17.2379643 magnetization       6.7154496

 Broyden mixing:
  rms(total) = 0.17389E+01    rms(broyden)= 0.17389E+01
  rms(prec ) = 0.18080E+01
  weight for this iteration     100.00

 eigenvalues of (default mixing * dielectric matrix)
  average eigenvalue GAMMA=   1.6985
  5.2470  1.1212  0.7113  0.7113  0.7017

 Free energy of the ion-electron system (eV)
  ---------------------------------------------------
  alpha Z        PSCENC =       387.32278329
  Ewald energy   TEWEN  =     -5258.41375116
  -Hartree energ DENC   =     -2441.37419426
  -exchange      EXHF   =         0.00000000
  -V(xc)+E(xc)   XCENC  =       272.40505785
  PAW double counting   =      9620.28559857    -9499.01316705
  entropy T*S    EENTRO =        -0.02562896
  eigenvalues    EBANDS =      -609.34029470
  atomic energy  EATOM  =      7429.07371459
  Solvation  Ediel_sol  =         0.00000000
  ---------------------------------------------------
  free energy    TOTEN  =       -99.07988185 eV

  energy without entropy =      -99.05425288  energy(sigma->0) =      -99.06706736


--------------------------------------------------------------------------------------------------------




--------------------------------------- Iteration      1(  11)  ---------------------------------------


    POTLOK:  cpu time    0.0759: real time    0.2722
    SETDIJ:  cpu time    2.6531: real time    2.6532
    EDDIAG:  cpu time    0.1715: real time    0.1715
  RMM-DIIS:  cpu time    0.2540: real time    0.2540
    ORTHCH:  cpu time    0.0103: real time    0.0103
       DOS:  cpu time    0.0042: real time    0.0042
    CHARGE:  cpu time    0.1518: real time    0.1518
    MIXING:  cpu time    0.0089: real time    0.0089
    --------------------------------------------
      LOOP:  cpu time    3.3299: real time    3.5264

 eigenvalue-minimisations  :  2620
 total energy-change (2. order) :-0.5524317E+00  (-0.2471711E-01)
 number of electron     108.0000017 magnetization       7.2397871
 augmentation part       17.1921268 magnetization       6.5302950

 Broyden mixing:
  rms(total) = 0.13079E+01    rms(broyden)= 0.13079E+01
  rms(prec ) = 0.14042E+01
  weight for this iteration     100.00

 eigenvalues of (default mixing * dielectric matrix)
  average eigenvalue GAMMA=   1.6298
  5.2246  1.0932  1.0932  1.1239  0.6221  0.6221

 Free energy of the ion-electron system (eV)
  ---------------------------------------------------
  alpha Z        PSCENC =       387.32278329
  Ewald energy   TEWEN  =     -5258.41375116
  -Hartree energ DENC   =     -2437.79007050
  -exchange      EXHF   =         0.00000000
  -V(xc)+E(xc)   XCENC  =       271.95078290
  PAW double counting   =     10339.55250053   -10221.12616167
  entropy T*S    EENTRO =        -0.02134835
  eigenvalues    EBANDS =      -610.18076312
  atomic energy  EATOM  =      7429.07371459
  Solvation  Ediel_sol  =         0.00000000
  ---------------------------------------------------
  free energy    TOTEN  =       -99.63231351 eV

  energy without entropy =      -99.61096516  energy(sigma->0) =      -99.62163933


--------------------------------------------------------------------------------------------------------




--------------------------------------- Iteration      1(  12)  ---------------------------------------


    POTLOK:  cpu time    0.0825: real time    0.2602
    SETDIJ:  cpu time    2.6540: real time    2.6541
    EDDIAG:  cpu time    0.1703: real time    0.1703
  RMM-DIIS:  cpu time    0.2507: real time    0.2507
    ORTHCH:  cpu time    0.0105: real time    0.0105
       DOS:  cpu time    0.0039: real time    0.0039
    CHARGE:  cpu time    0.1553: real time    0.1553
    MIXING:  cpu time    0.0089: real time    0.0089
    --------------------------------------------
      LOOP:  cpu time    3.3355: real time    3.5134

 eigenvalue-minimisations  :  2606
 total energy-change (2. order) :-0.1144563E+00  (-0.2313894E-02)
 number of electron     108.0000017 magnetization       7.3904829
 augmentation part       17.2061634 magnetization       6.8843087

 Broyden mixing:
  rms(total) = 0.12509E+01    rms(broyden)= 0.12509E+01
  rms(prec ) = 0.13283E+01
  weight for this iteration     100.00

 eigenvalues of (default mixing * dielectric matrix)
  average eigenvalue GAMMA=   1.4186
  5.2660  1.0683  1.0683  1.1373  0.6296  0.6296  0.1310

 Free energy of the ion-electron system (eV)
  ---------------------------------------------------
  alpha Z        PSCENC =       387.32278329
  Ewald energy   TEWEN  =     -5258.41375116
  -Hartree energ DENC   =     -2436.45281428
  -exchange      EXHF   =         0.00000000
  -V(xc)+E(xc)   XCENC  =       271.80625687
  PAW double counting   =     10294.47799751   -10175.99919005
  entropy T*S    EENTRO =        -0.01385898
  eigenvalues    EBANDS =      -611.54790763
  atomic energy  EATOM  =      7429.07371459
  Solvation  Ediel_sol  =         0.00000000
  ---------------------------------------------------
  free energy    TOTEN  =       -99.74676984 eV

  energy without entropy =      -99.73291086  energy(sigma->0) =      -99.73984035


--------------------------------------------------------------------------------------------------------




--------------------------------------- Iteration      1(  13)  ---------------------------------------


    POTLOK:  cpu time    0.0807: real time    0.1448
    SETDIJ:  cpu time    2.6532: real time    2.6533
    EDDIAG:  cpu time    0.1703: real time    0.1703
  RMM-DIIS:  cpu time    0.2670: real time    0.2670
    ORTHCH:  cpu time    0.0101: real time    0.0101
       DOS:  cpu time    0.0039: real time    0.0039
    CHARGE:  cpu time    0.1614: real time    0.1614
    MIXING:  cpu time    0.0092: real time    0.0092
    --------------------------------------------
      LOOP:  cpu time    3.3559: real time    3.4200

 eigenvalue-minimisations  :  2656
 total energy-change (2. order) : 0.1335569E-02  (-0.6843427E-03)
 number of electron     108.0000017 magnetization       7.6873546
 augmentation part       17.1914978 magnetization       7.1398868

 Broyden mixing:
  rms(total) = 0.12930E+01    rms(broyden)= 0.12930E+01
  rms(prec ) = 0.13790E+01
  weight for this iteration     100.00

 eigenvalues of (default mixing * dielectric matrix)
  average eigenvalue GAMMA=   2.2363
  5.4847  3.9592  3.9592  1.1604  0.9765  0.9765  0.6870  0.6870

 Free energy of the ion-electron system (eV)
  ---------------------------------------------------
  alpha Z        PSCENC =       387.32278329
  Ewald energy   TEWEN  =     -5258.41375116
  -Hartree energ DENC   =     -2436.55010516
  -exchange      EXHF   =         0.00000000
  -V(xc)+E(xc)   XCENC  =       271.80694974
  PAW double counting   =     10360.51291156   -10242.23582619
  entropy T*S    EENTRO =        -0.01571811
  eigenvalues    EBANDS =      -611.24639284
  atomic energy  EATOM  =      7429.07371459
  Solvation  Ediel_sol  =         0.00000000
  ---------------------------------------------------
  free energy    TOTEN  =       -99.74543427 eV

  energy without entropy =      -99.72971617  energy(sigma->0) =      -99.73757522


--------------------------------------------------------------------------------------------------------




--------------------------------------- Iteration      1(  14)  ---------------------------------------


    POTLOK:  cpu time    0.0890: real time    0.1365
    SETDIJ:  cpu time    2.6529: real time    2.6530
    EDDIAG:  cpu time    0.1703: real time    0.1703
  RMM-DIIS:  cpu time    0.2476: real time    0.2476
    ORTHCH:  cpu time    0.0102: real time    0.0102
       DOS:  cpu time    0.0040: real time    0.0040
    CHARGE:  cpu time    0.1509: real time    0.1510
    MIXING:  cpu time    0.0092: real time    0.0092
    --------------------------------------------
      LOOP:  cpu time    3.3341: real time    3.3818

 eigenvalue-minimisations  :  2592
 total energy-change (2. order) : 0.1249395E+00  (-0.3520833E-02)
 number of electron     108.0000018 magnetization       6.3821787
 augmentation part       17.1843242 magnetization       5.7085645

 Broyden mixing:
  rms(total) = 0.12807E+01    rms(broyden)= 0.12807E+01
  rms(prec ) = 0.13515E+01
  weight for this iteration     100.00

 eigenvalues of (default mixing * dielectric matrix)
  average eigenvalue GAMMA=   2.6130
  6.5310  6.5310  5.3411  1.1189  1.1189  0.9148  0.6825  0.6825  0.5962

 Free energy of the ion-electron system (eV)
  ---------------------------------------------------
  alpha Z        PSCENC =       387.32278329
  Ewald energy   TEWEN  =     -5258.41375116
  -Hartree energ DENC   =     -2435.76932472
  -exchange      EXHF   =         0.00000000
  -V(xc)+E(xc)   XCENC  =       271.78697759
  PAW double counting   =     10490.22430751   -10372.34136452
  entropy T*S    EENTRO =        -0.02235626
  eigenvalues    EBANDS =      -611.48148110
  atomic energy  EATOM  =      7429.07371459
  Solvation  Ediel_sol  =         0.00000000
  ---------------------------------------------------
  free energy    TOTEN  =       -99.62049478 eV

  energy without entropy =      -99.59813852  energy(sigma->0) =      -99.60931665


--------------------------------------------------------------------------------------------------------




--------------------------------------- Iteration      1(  15)  ---------------------------------------


    POTLOK:  cpu time    0.0773: real time    0.1252
    SETDIJ:  cpu time    2.6512: real time    2.6512
    EDDIAG:  cpu time    0.1708: real time    0.1708
  RMM-DIIS:  cpu time    0.2502: real time    0.2502
    ORTHCH:  cpu time    0.0102: real time    0.0102
       DOS:  cpu time    0.0037: real time    0.0037
    CHARGE:  cpu time    0.1515: real time    0.1516
    MIXING:  cpu time    0.0094: real time    0.0094
    --------------------------------------------
      LOOP:  cpu time    3.3244: real time    3.3723

 eigenvalue-minimisations  :  2602
 total energy-change (2. order) :-0.1857530E+00  (-0.8686170E-02)
 number of electron     108.0000018 magnetization      -0.8332455
 augmentation part       17.2461980 magnetization      -1.3893846

 Broyden mixing:
  rms(total) = 0.11806E+01    rms(broyden)= 0.11806E+01
  rms(prec ) = 0.12135E+01
  weight for this iteration     100.00

 eigenvalues of (default mixing * dielectric matrix)
  average eigenvalue GAMMA=   2.8783
 11.1229  4.8627  3.5603  3.5603  1.2235  1.2235  0.6825  0.6825  1.0129  0.8522

 Free energy of the ion-electron system (eV)
  ---------------------------------------------------
  alpha Z        PSCENC =       387.32278329
  Ewald energy   TEWEN  =     -5258.41375116
  -Hartree energ DENC   =     -2434.00826391
  -exchange      EXHF   =         0.00000000
  -V(xc)+E(xc)   XCENC  =       271.62328029
  PAW double counting   =     10334.32259196   -10216.08301081
  entropy T*S    EENTRO =        -0.01721176
  eigenvalues    EBANDS =      -613.62638031
  atomic energy  EATOM  =      7429.07371459
  Solvation  Ediel_sol  =         0.00000000
  ---------------------------------------------------
  free energy    TOTEN  =       -99.80624782 eV

  energy without entropy =      -99.78903606  energy(sigma->0) =      -99.79764194


--------------------------------------------------------------------------------------------------------




--------------------------------------- Iteration      1(  16)  ---------------------------------------


    POTLOK:  cpu time    0.1234: real time    0.1238
    SETDIJ:  cpu time    2.6545: real time    2.6546
    EDDIAG:  cpu time    0.1709: real time    0.1709
  RMM-DIIS:  cpu time    0.2474: real time    0.2474
    ORTHCH:  cpu time    0.0103: real time    0.0103
       DOS:  cpu time    0.0060: real time    0.0060
    CHARGE:  cpu time    0.1530: real time    0.1530
    MIXING:  cpu time    0.0157: real time    0.0195
    --------------------------------------------
      LOOP:  cpu time    3.3812: real time    3.3854

 eigenvalue-minimisations  :  2594
 total energy-change (2. order) :-0.5560312E+00  (-0.6304835E-01)
 number of electron     108.0000018 magnetization      -0.9201205
 augmentation part       17.2701673 magnetization      -0.6593436

 Broyden mixing:
  rms(total) = 0.70195E+00    rms(broyden)= 0.70191E+00
  rms(prec ) = 0.70890E+00
  weight for this iteration     100.00

 eigenvalues of (default mixing * dielectric matrix)
  average eigenvalue GAMMA=   2.6211
 11.1481  4.8440  3.5633  3.5633  1.2229  1.2229  1.0133  0.6825  0.6825  0.8519
  0.0370

 Free energy of the ion-electron system (eV)
  ---------------------------------------------------
  alpha Z        PSCENC =       387.32278329
  Ewald energy   TEWEN  =     -5258.41375116
  -Hartree energ DENC   =     -2430.02463486
  -exchange      EXHF   =         0.00000000
  -V(xc)+E(xc)   XCENC  =       271.06857863
  PAW double counting   =     10005.71797827    -9887.13250343
  entropy T*S    EENTRO =        -0.02617505
  eigenvalues    EBANDS =      -617.94826929
  atomic energy  EATOM  =      7429.07371459
  Solvation  Ediel_sol  =         0.00000000
  ---------------------------------------------------
  free energy    TOTEN  =      -100.36227901 eV

  energy without entropy =     -100.33610396  energy(sigma->0) =     -100.34919148


--------------------------------------------------------------------------------------------------------




--------------------------------------- Iteration      1(  17)  ---------------------------------------


    POTLOK:  cpu time    2.5355: real time    2.5833
    SETDIJ:  cpu time    2.6523: real time    2.6524
    EDDIAG:  cpu time    0.1702: real time    0.1702
  RMM-DIIS:  cpu time    0.2558: real time    0.2558
    ORTHCH:  cpu time    0.0106: real time    0.0106
       DOS:  cpu time    0.0038: real time    0.0038
    CHARGE:  cpu time    0.1514: real time    0.1514
    MIXING:  cpu time    0.0132: real time    0.0137
    --------------------------------------------
      LOOP:  cpu time    5.7928: real time    5.8412

 eigenvalue-minimisations  :  2627
 total energy-change (2. order) :-0.4190388E-02  (-0.2469650E-02)
 number of electron     108.0000019 magnetization      -0.4685358
 augmentation part       17.2856838 magnetization      -0.1569334

 Broyden mixing:
  rms(total) = 0.72542E+00    rms(broyden)= 0.72542E+00
  rms(prec ) = 0.73356E+00
  weight for this iteration     100.00

 eigenvalues of (default mixing * dielectric matrix)
  average eigenvalue GAMMA=   2.3939
 10.6399  4.8116  3.5902  3.5902  1.2303  1.2303  1.0016  0.8558  0.6825  0.6825
  0.2058  0.2058

 Free energy of the ion-electron system (eV)
  ---------------------------------------------------
  alpha Z        PSCENC =       387.32278329
  Ewald energy   TEWEN  =     -5258.41375116
  -Hartree energ DENC   =     -2429.84993561
  -exchange      EXHF   =         0.00000000
  -V(xc)+E(xc)   XCENC  =       271.06501832
  PAW double counting   =      9996.71702535    -9878.11164043
  entropy T*S    EENTRO =        -0.02483187
  eigenvalues    EBANDS =      -618.14485187
  atomic energy  EATOM  =      7429.07371459
  Solvation  Ediel_sol  =         0.00000000
  ---------------------------------------------------
  free energy    TOTEN  =      -100.36646939 eV

  energy without entropy =     -100.34163752  energy(sigma->0) =     -100.35405346


--------------------------------------------------------------------------------------------------------




--------------------------------------- Iteration      1(  18)  ---------------------------------------


    POTLOK:  cpu time    0.0943: real time    0.2891
    SETDIJ:  cpu time    2.6536: real time    2.6537
    EDDIAG:  cpu time    0.1698: real time    0.1698
  RMM-DIIS:  cpu time    0.2527: real time    0.2527
    ORTHCH:  cpu time    0.0105: real time    0.0105
       DOS:  cpu time    0.0043: real time    0.0043
    CHARGE:  cpu time    0.1512: real time    0.1513
    MIXING:  cpu time    0.0134: real time    0.0139
    --------------------------------------------
      LOOP:  cpu time    3.3498: real time    3.5454

 eigenvalue-minimisations  :  2623
 total energy-change (2. order) :-0.8059110E-03  (-0.2193787E-03)
 number of electron     108.0000019 magnetization      -0.2018832
 augmentation part       17.2701906 magnetization      -0.1167021

 Broyden mixing:
  rms(total) = 0.66693E+00    rms(broyden)= 0.66693E+00
  rms(prec ) = 0.67479E+00
  weight for this iteration     100.00

 eigenvalues of (default mixing * dielectric matrix)
  average eigenvalue GAMMA=   2.2311
 10.5240  4.8301  3.5634  3.5634  1.2361  1.2361  0.9852  0.8610  0.6826  0.6826
  0.3294  0.3294  0.1811

 Free energy of the ion-electron system (eV)
  ---------------------------------------------------
  alpha Z        PSCENC =       387.32278329
  Ewald energy   TEWEN  =     -5258.41375116
  -Hartree energ DENC   =     -2429.97236161
  -exchange      EXHF   =         0.00000000
  -V(xc)+E(xc)   XCENC  =       271.05735328
  PAW double counting   =     10013.70683567    -9895.11718184
  entropy T*S    EENTRO =        -0.02800926
  eigenvalues    EBANDS =      -617.99665826
  atomic energy  EATOM  =      7429.07371459
  Solvation  Ediel_sol  =         0.00000000
  ---------------------------------------------------
  free energy    TOTEN  =      -100.36727530 eV

  energy without entropy =     -100.33926604  energy(sigma->0) =     -100.35327067


--------------------------------------------------------------------------------------------------------




--------------------------------------- Iteration      1(  19)  ---------------------------------------


    POTLOK:  cpu time    0.0813: real time    0.1906
    SETDIJ:  cpu time    2.6558: real time    2.6559
    EDDIAG:  cpu time    0.1696: real time    0.1696
  RMM-DIIS:  cpu time    0.2479: real time    0.2480
    ORTHCH:  cpu time    0.0103: real time    0.0103
       DOS:  cpu time    0.0040: real time    0.0040
    CHARGE:  cpu time    0.1522: real time    0.1522
    MIXING:  cpu time    0.0133: real time    0.0137
    --------------------------------------------
      LOOP:  cpu time    3.3345: real time    3.4442

 eigenvalue-minimisations  :  2592
 total energy-change (2. order) : 0.6204186E-03  (-0.2786894E-03)
 number of electron     108.0000019 magnetization      -0.3160113
 augmentation part       17.2512637 magnetization      -0.3987833

 Broyden mixing:
  rms(total) = 0.60372E+00    rms(broyden)= 0.60372E+00
  rms(prec ) = 0.61286E+00
  weight for this iteration     100.00

 eigenvalues of (default mixing * dielectric matrix)
  average eigenvalue GAMMA=   2.1753
 10.8466  4.8969  3.3176  3.3176  1.2477  1.2477  0.6366  0.6366  0.9407  0.8738
  0.6828  0.6828  0.5632  0.5632

 Free energy of the ion-electron system (eV)
  ---------------------------------------------------
  alpha Z        PSCENC =       387.32278329
  Ewald energy   TEWEN  =     -5258.41375116
  -Hartree energ DENC   =     -2430.13612225
  -exchange      EXHF   =         0.00000000
  -V(xc)+E(xc)   XCENC  =       271.04706988
  PAW double counting   =     10035.85259875    -9917.31610203
  entropy T*S    EENTRO =        -0.02712898
  eigenvalues    EBANDS =      -617.76971697
  atomic energy  EATOM  =      7429.07371459
  Solvation  Ediel_sol  =         0.00000000
  ---------------------------------------------------
  free energy    TOTEN  =      -100.36665489 eV

  energy without entropy =     -100.33952591  energy(sigma->0) =     -100.35309040


--------------------------------------------------------------------------------------------------------




--------------------------------------- Iteration      1(  20)  ---------------------------------------


    POTLOK:  cpu time    0.0811: real time    0.2113
    SETDIJ:  cpu time    2.6545: real time    2.6546
    EDDIAG:  cpu time    0.1697: real time    0.1697
  RMM-DIIS:  cpu time    0.2491: real time    0.2491
    ORTHCH:  cpu time    0.0102: real time    0.0102
       DOS:  cpu time    0.0037: real time    0.0037
    CHARGE:  cpu time    0.1503: real time    0.1503
    MIXING:  cpu time    0.0141: real time    0.0148
    --------------------------------------------
      LOOP:  cpu time    3.3328: real time    3.4638

 eigenvalue-minimisations  :  2596
 total energy-change (2. order) : 0.1068537E-02  (-0.5832289E-04)
 number of electron     108.0000019 magnetization       0.2360097
 augmentation part       17.2540509 magnetization       0.2087398

 Broyden mixing:
  rms(total) = 0.58873E+00    rms(broyden)= 0.58873E+00
  rms(prec ) = 0.59730E+00
  weight for this iteration     100.00

 eigenvalues of (default mixing * dielectric matrix)
  average eigenvalue GAMMA=   2.2760
 10.1768  5.5985  3.9547  2.8173  2.8173  1.2778  1.1469  1.1469  0.9607  0.8668
  0.6826  0.6826  0.7286  0.7286  0.5541

 Free energy of the ion-electron system (eV)
  ---------------------------------------------------
  alpha Z        PSCENC =       387.32278329
  Ewald energy   TEWEN  =     -5258.41375116
  -Hartree energ DENC   =     -2430.41828735
  -exchange      EXHF   =         0.00000000
  -V(xc)+E(xc)   XCENC  =       271.06584061
  PAW double counting   =     10026.40361736    -9907.84180339
  entropy T*S    EENTRO =        -0.02780752
  eigenvalues    EBANDS =      -617.52989277
  atomic energy  EATOM  =      7429.07371459
  Solvation  Ediel_sol  =         0.00000000
  ---------------------------------------------------
  free energy    TOTEN  =      -100.36558635 eV

  energy without entropy =     -100.33777883  energy(sigma->0) =     -100.35168259


--------------------------------------------------------------------------------------------------------




--------------------------------------- Iteration      1(  21)  ---------------------------------------


    POTLOK:  cpu time    0.0783: real time    0.1541
    SETDIJ:  cpu time    2.6547: real time    2.6547
    EDDIAG:  cpu time    0.1704: real time    0.1705
  RMM-DIIS:  cpu time    0.2485: real time    0.2485
    ORTHCH:  cpu time    0.0104: real time    0.0104
       DOS:  cpu time    0.0042: real time    0.0042
    CHARGE:  cpu time    0.1518: real time    0.1518
    MIXING:  cpu time    0.0146: real time    0.0163
    --------------------------------------------
      LOOP:  cpu time    3.3331: real time    3.4106

 eigenvalue-minimisations  :  2592
 total energy-change (2. order) :-0.1944597E-02  (-0.7696864E-03)
 number of electron     108.0000018 magnetization       0.0364628
 augmentation part       17.2441646 magnetization      -0.2906533

 Broyden mixing:
  rms(total) = 0.36861E+00    rms(broyden)= 0.36860E+00
  rms(prec ) = 0.37629E+00
  weight for this iteration     100.00

 eigenvalues of (default mixing * dielectric matrix)
  average eigenvalue GAMMA=   2.2128
 10.1878  6.0699  4.2834  2.7074  2.7074  0.7111  0.7111  1.2469  1.1206  1.1206
  1.0407  0.6824  0.6824  0.8716  0.6310  0.6310

 Free energy of the ion-electron system (eV)
  ---------------------------------------------------
  alpha Z        PSCENC =       387.32278329
  Ewald energy   TEWEN  =     -5258.41375116
  -Hartree energ DENC   =     -2431.83522737
  -exchange      EXHF   =         0.00000000
  -V(xc)+E(xc)   XCENC  =       271.15314098
  PAW double counting   =     10049.44889423    -9930.92861036
  entropy T*S    EENTRO =        -0.02253007
  eigenvalues    EBANDS =      -616.16594508
  atomic energy  EATOM  =      7429.07371459
  Solvation  Ediel_sol  =         0.00000000
  ---------------------------------------------------
  free energy    TOTEN  =      -100.36753095 eV

  energy without entropy =     -100.34500088  energy(sigma->0) =     -100.35626591


--------------------------------------------------------------------------------------------------------




--------------------------------------- Iteration      1(  22)  ---------------------------------------


    POTLOK:  cpu time    0.1008: real time    0.2500
    SETDIJ:  cpu time    2.6545: real time    2.6546
    EDDIAG:  cpu time    0.1702: real time    0.1702
  RMM-DIIS:  cpu time    0.2489: real time    0.2489
    ORTHCH:  cpu time    0.0104: real time    0.0104
       DOS:  cpu time    0.0039: real time    0.0039
    CHARGE:  cpu time    0.1509: real time    0.1509
    MIXING:  cpu time    0.0143: real time    0.0151
    --------------------------------------------
      LOOP:  cpu time    3.3538: real time    3.5037

 eigenvalue-minimisations  :  2594
 total energy-change (2. order) : 0.1101155E-02  (-0.4515857E-03)
 number of electron     108.0000018 magnetization      -0.0027545
 augmentation part       17.2689682 magnetization      -0.2194008

 Broyden mixing:
  rms(total) = 0.43018E+00    rms(broyden)= 0.43018E+00
  rms(prec ) = 0.43545E+00
  weight for this iteration     100.00

 eigenvalues of (default mixing * dielectric matrix)
  average eigenvalue GAMMA=   2.1268
 10.1262  6.1506  4.3274  2.7498  2.7498  0.6967  0.6967  1.2400  1.1026  1.1026
  1.0211  0.8618  0.6826  0.6826  0.7102  0.7102  0.5454

 Free energy of the ion-electron system (eV)
  ---------------------------------------------------
  alpha Z        PSCENC =       387.32278329
  Ewald energy   TEWEN  =     -5258.41375116
  -Hartree energ DENC   =     -2431.32344766
  -exchange      EXHF   =         0.00000000
  -V(xc)+E(xc)   XCENC  =       271.15515042
  PAW double counting   =     10022.99549001    -9904.41555311
  entropy T*S    EENTRO =        -0.02751358
  eigenvalues    EBANDS =      -616.73330259
  atomic energy  EATOM  =      7429.07371459
  Solvation  Ediel_sol  =         0.00000000
  ---------------------------------------------------
  free energy    TOTEN  =      -100.36642979 eV

  energy without entropy =     -100.33891621  energy(sigma->0) =     -100.35267300


--------------------------------------------------------------------------------------------------------




--------------------------------------- Iteration      1(  23)  ---------------------------------------


    POTLOK:  cpu time    0.0817: real time    0.1367
    SETDIJ:  cpu time    2.6532: real time    2.6533
    EDDIAG:  cpu time    0.1692: real time    0.1692
  RMM-DIIS:  cpu time    0.2594: real time    0.2594
    ORTHCH:  cpu time    0.0106: real time    0.0106
       DOS:  cpu time    0.0038: real time    0.0038
    CHARGE:  cpu time    0.1506: real time    0.1506
    MIXING:  cpu time    0.0110: real time    0.0110
    --------------------------------------------
      LOOP:  cpu time    3.3395: real time    3.3947

 eigenvalue-minimisations  :  2653
 total energy-change (2. order) : 0.4349002E-03  (-0.2707913E-04)
 number of electron     108.0000018 magnetization       1.7077079
 augmentation part       17.2697494 magnetization       1.5187608

 Broyden mixing:
  rms(total) = 0.43865E+00    rms(broyden)= 0.43865E+00
  rms(prec ) = 0.44400E+00
  weight for this iteration     100.00

 eigenvalues of (default mixing * dielectric matrix)
  average eigenvalue GAMMA=   2.5412
 10.2788  5.9591  4.4760  4.4760  4.6722  3.1475  3.1475  0.7121  0.7121  1.1816
  1.1816  0.6825  0.6825  1.0480  1.0480  0.9207  0.8503  0.5658

 Free energy of the ion-electron system (eV)
  ---------------------------------------------------
  alpha Z        PSCENC =       387.32278329
  Ewald energy   TEWEN  =     -5258.41375116
  -Hartree energ DENC   =     -2431.36791829
  -exchange      EXHF   =         0.00000000
  -V(xc)+E(xc)   XCENC  =       271.15840516
  PAW double counting   =     10022.61229792    -9904.03198101
  entropy T*S    EENTRO =        -0.02808646
  eigenvalues    EBANDS =      -616.69145892
  atomic energy  EATOM  =      7429.07371459
  Solvation  Ediel_sol  =         0.00000000
  ---------------------------------------------------
  free energy    TOTEN  =      -100.36599489 eV

  energy without entropy =     -100.33790843  energy(sigma->0) =     -100.35195166


--------------------------------------------------------------------------------------------------------




--------------------------------------- Iteration      1(  24)  ---------------------------------------


    POTLOK:  cpu time    0.0807: real time    0.2696
    SETDIJ:  cpu time    2.6547: real time    2.6548
    EDDIAG:  cpu time    0.1697: real time    0.1697
  RMM-DIIS:  cpu time    0.2470: real time    0.2470
    ORTHCH:  cpu time    0.0104: real time    0.0104
       DOS:  cpu time    0.0037: real time    0.0037
    CHARGE:  cpu time    0.1501: real time    0.1502
    MIXING:  cpu time    0.0107: real time    0.0107
    --------------------------------------------
      LOOP:  cpu time    3.3270: real time    3.5160

 eigenvalue-minimisations  :  2593
 total energy-change (2. order) : 0.7127545E-02  (-0.4430055E-02)
 number of electron     108.0000018 magnetization       2.0472803
 augmentation part       17.2397867 magnetization       1.5644654

 Broyden mixing:
  rms(total) = 0.74504E+00    rms(broyden)= 0.74504E+00
  rms(prec ) = 0.74718E+00
  weight for this iteration     100.00

 eigenvalues of (default mixing * dielectric matrix)
  average eigenvalue GAMMA=   2.6745
 14.1562  6.6612  5.4447  4.2959  4.2959  2.9661  2.9661  0.7122  0.7122  1.1888
  1.1888  0.6825  0.6825  1.0404  1.0404  0.8322  0.7838  0.5714  0.5941

 Free energy of the ion-electron system (eV)
  ---------------------------------------------------
  alpha Z        PSCENC =       387.32278329
  Ewald energy   TEWEN  =     -5258.41375116
  -Hartree energ DENC   =     -2434.03532814
  -exchange      EXHF   =         0.00000000
  -V(xc)+E(xc)   XCENC  =       271.36346934
  PAW double counting   =     10140.32893535   -10022.05516479
  entropy T*S    EENTRO =        -0.01376544
  eigenvalues    EBANDS =      -613.92976037
  atomic energy  EATOM  =      7429.07371459
  Solvation  Ediel_sol  =         0.00000000
  ---------------------------------------------------
  free energy    TOTEN  =      -100.35886735 eV

  energy without entropy =     -100.34510191  energy(sigma->0) =     -100.35198463


--------------------------------------------------------------------------------------------------------




--------------------------------------- Iteration      1(  25)  ---------------------------------------


    POTLOK:  cpu time    0.0905: real time    0.1636
    SETDIJ:  cpu time    2.6568: real time    2.6568
    EDDIAG:  cpu time    0.1690: real time    0.1690
  RMM-DIIS:  cpu time    0.2484: real time    0.2484
    ORTHCH:  cpu time    0.0102: real time    0.0102
       DOS:  cpu time    0.0040: real time    0.0040
    CHARGE:  cpu time    0.1514: real time    0.1514
    MIXING:  cpu time    0.0139: real time    0.0146
    --------------------------------------------
      LOOP:  cpu time    3.3440: real time    3.4180

 eigenvalue-minimisations  :  2600
 total energy-change (2. order) : 0.2072132E-01  (-0.1091951E-02)
 number of electron     108.0000018 magnetization       2.0850946
 augmentation part       17.2391970 magnetization       1.6168717

 Broyden mixing:
  rms(total) = 0.11100E+01    rms(broyden)= 0.11100E+01
  rms(prec ) = 0.11117E+01
  weight for this iteration     100.00

 eigenvalues of (default mixing * dielectric matrix)
  average eigenvalue GAMMA=   2.6125
 14.3484  6.8873  5.3274  4.3623  4.3623  3.1023  3.1023  0.7122  0.7122  1.1874
  1.1874  0.6825  0.6825  1.0425  1.0425  0.8403  0.8007  0.8007  0.5660  0.5008

 Free energy of the ion-electron system (eV)
  ---------------------------------------------------
  alpha Z        PSCENC =       387.32278329
  Ewald energy   TEWEN  =     -5258.41375116
  -Hartree energ DENC   =     -2434.71962050
  -exchange      EXHF   =         0.00000000
  -V(xc)+E(xc)   XCENC  =       271.46760670
  PAW double counting   =     10177.54637054   -10059.43047679
  entropy T*S    EENTRO =        -0.01345438
  eigenvalues    EBANDS =      -613.17131830
  atomic energy  EATOM  =      7429.07371459
  Solvation  Ediel_sol  =         0.00000000
  ---------------------------------------------------
  free energy    TOTEN  =      -100.33814602 eV

  energy without entropy =     -100.32469164  energy(sigma->0) =     -100.33141883


--------------------------------------------------------------------------------------------------------




--------------------------------------- Iteration      1(  26)  ---------------------------------------


    POTLOK:  cpu time    0.0756: real time    0.1281
    SETDIJ:  cpu time    2.6575: real time    2.6576
    EDDIAG:  cpu time    0.1699: real time    0.1699
  RMM-DIIS:  cpu time    0.2573: real time    0.2573
    ORTHCH:  cpu time    0.0104: real time    0.0104
[...]

 k-point     7 :       0.0000    0.0000    0.4000
  band No.  band energies     occupation 
      1     -17.3970      1.00000
      2     -17.0516      1.00000
      3     -17.0516      1.00000
      4     -16.7167      1.00000
      5     -16.5871      1.00000
      6     -16.5583      1.00000
      7     -16.5583      1.00000
      8     -16.5549      1.00000
      9     -15.8557      1.00000
     10     -15.8557      1.00000
     11     -15.8186      1.00000
     12     -15.8186      1.00000
     13      -7.6013      1.00000
     14      -7.5882      1.00000
     15      -7.5882      1.00000
     16      -7.4794      1.00000
     17      -7.4437      1.00000
     18      -7.0984      1.00000
     19      -7.0984      1.00000
     20      -6.7473      1.00000
     21      -5.4119      1.00000
     22      -5.4119      1.00000
     23      -5.3448      1.00000
     24      -5.3448      1.00000
     25      -5.1220      1.00000
     26      -4.0659      1.00000
     27      -4.0659      1.00000
     28      -4.0230      1.00000
     29      -4.0230      1.00000
     30      -3.6800      1.00000
     31      -3.6800      1.00000
     32      -2.5447      1.00000
     33      -2.5447      1.00000
     34      -2.1905      1.00000
     35      -2.1905      1.00000
     36      -1.7844      1.00000
     37      -1.3508      1.00000
     38      -0.8073      1.00000
     39      -0.8073      1.00000
     40      -0.7747      1.00000
     41      -0.7747      1.00000
     42      -0.3422      1.00000
     43      -0.0085      1.00000
     44      -0.0085      1.00000
     45       0.6855      1.00000
     46       0.6855      1.00000
     47       0.6856      1.00000
     48       0.6856      1.00000
     49       1.1099      1.00000
     50       1.8184      0.23474
     51       2.0630      0.00000
     52       2.0630      0.00000
     53       2.0701      0.00000
     54       2.0701      0.00000
     55       2.5502      0.00000
     56       2.5502      0.00000
     57       2.8090      0.00000
     58       2.8090      0.00000
     59       2.8442      0.00000
     60       2.8442      0.00000
     61       3.0755      0.00000
     62       3.4637      0.00000
     63       3.4637      0.00000
     64       5.2943      0.00000
     65       8.8033      0.00000
     66       8.9035      0.00000
     67       8.9035      0.00000
     68       9.1654      0.00000
     69      10.3607      0.00000
     70      10.6441      0.00000
     71      11.7470      0.00000
     72      11.7470      0.00000

 k-point     8 :       0.5000    0.0000    0.4000
  band No.  band energies     occupation 
      1     -17.1616      1.00000
      2     -17.1616      1.00000
      3     -16.6259      1.00000
      4     -16.6259      1.00000
      5     -16.5781      1.00000
      6     -16.5781      1.00000
      7     -16.4324      1.00000
      8     -16.4324      1.00000
      9     -16.4071      1.00000
     10     -16.4071      1.00000
     11     -15.8373      1.00000
     12     -15.8373      1.00000
     13      -7.5825      1.00000
     14      -7.5825      1.00000
     15      -7.4801      1.00000
     16      -7.4801      1.00000
     17      -7.1216      1.00000
     18      -7.1216      1.00000
     19      -5.3789      1.00000
     20      -5.3789      1.00000
     21      -5.2528      1.00000
     22      -5.2528      1.00000
     23      -5.0869      1.00000
     24      -5.0869      1.00000
     25      -4.8347      1.00000
     26      -4.8347      1.00000
     27      -4.7674      1.00000
     28      -4.7674      1.00000
     29      -4.5522      1.00000
     30      -4.5522      1.00000
     31      -4.0461      1.00000
     32      -4.0461      1.00000
     33      -3.1581      1.00000
     34      -3.1581      1.00000
     35      -2.1481      1.00000
     36      -2.1481      1.00000
     37      -0.9195      1.00000
     38      -0.9195      1.00000
     39      -0.5565      1.00000
     40      -0.5565      1.00000
     41       0.1937      1.00000
     42       0.1937      1.00000
     43       0.2693      1.00000
     44       0.2693      1.00000
     45       0.4037      1.00000
     46       0.4037      1.00000
     47       0.7028      1.00000
     48       0.7028      1.00000
     49       1.4471      1.00000
     50       1.4471      1.00000
     51       2.0688      0.00000
     52       2.0688      0.00000
     53       2.2628      0.00000
     54       2.2628      0.00000
     55       2.2754      0.00000
     56       2.2754      0.00000
     57       2.6577      0.00000
     58       2.6577      0.00000
     59       2.8337      0.00000
     60       2.8337      0.00000
     61       3.1955      0.00000
     62       3.1955      0.00000
     63       6.7082      0.00000
     64       6.7082      0.00000
     65       7.1725      0.00000
     66       7.1725      0.00000
     67       8.9049      0.00000
     68       8.9049      0.00000
     69      10.8618      0.00000
     70      10.8618      0.00000
     71      11.1853      0.00000
     72      11.1853      0.00000

 k-point     9 :       0.5000    0.5000    0.4000
  band No.  band energies     occupation 
      1     -16.7669      1.00000
      2     -16.7669      1.00000
      3     -16.7669      1.00000
      4     -16.7669      1.00000
      5     -16.5037      1.00000
      6     -16.5037      1.00000
      7     -16.5037      1.00000
      8     -16.5037      1.00000
      9     -16.3155      1.00000
     10     -16.3155      1.00000
     11     -16.3155      1.00000
     12     -16.3155      1.00000
     13      -7.4803      1.00000
     14      -7.4803      1.00000
     15      -7.4803      1.00000
     16      -7.4803      1.00000
     17      -5.5009      1.00000
     18      -5.5009      1.00000
     19      -5.5009      1.00000
     20      -5.5009      1.00000
     21      -4.9774      1.00000
     22      -4.9774      1.00000
     23      -4.9774      1.00000
     24      -4.9774      1.00000
     25      -4.7870      1.00000
     26      -4.7870      1.00000
     27      -4.7870      1.00000
     28      -4.7870      1.00000
     29      -4.7456      1.00000
     30      -4.7456      1.00000
     31      -4.7456      1.00000
     32      -4.7456      1.00000
     33      -3.9077      1.00000
     34      -3.9077      1.00000
     35      -3.9077      1.00000
     36      -3.9077      1.00000
     37      -0.0119      1.00000
     38      -0.0119      1.00000
     39      -0.0119      1.00000
     40      -0.0119      1.00000
     41       0.2660      1.00000
     42       0.2660      1.00000
     43       0.2660      1.00000
     44       0.2660      1.00000
     45       0.4021      1.00000
     46       0.4021      1.00000
     47       0.4021      1.00000
     48       0.4021      1.00000
     49       1.7663      0.77398
     50       1.7663      0.77398
     51       1.7663      0.77397
     52       1.7663      0.77397
     53       2.2212      0.00000
     54       2.2212      0.00000
     55       2.2212      0.00000
     56       2.2212      0.00000
     57       2.3361      0.00000
     58       2.3361      0.00000
     59       2.3362      0.00000
     60       2.3362      0.00000
     61       6.0059      0.00000
     62       6.0059      0.00000
     63       6.0059      0.00000
     64       6.0059      0.00000
     65       7.5240      0.00000
     66       7.5240      0.00000
     67       7.5240      0.00000
     68       7.5240      0.00000
     69      11.0560      0.00000
     70      11.0560      0.00000
     71      11.0560      0.00000
     72      11.0560      0.00000


--------------------------------------------------------------------------------------------------------


 soft charge-density along one line, spin component           1
         0         1         2         3         4         5         6         7         8         9
 total charge-density along one line
 
 soft charge-density along one line, spin component           2
         0         1         2         3         4         5         6         7         8         9
 total charge-density along one line
 
 pseudopotential strength for first ion, spin component:           1
 12.835 -15.669  -0.000  -0.000  -0.000   0.000   0.000   0.000
-15.669  19.152   0.000   0.000   0.000  -0.000  -0.000  -0.000
 -0.000   0.000  -9.138  -0.000   0.000  11.111   0.000  -0.000
 -0.000   0.000  -0.000  -9.268  -0.000   0.000  11.283   0.000
 -0.000   0.000   0.000  -0.000  -9.138  -0.000   0.000  11.111
  0.000  -0.000  11.111   0.000  -0.000 -13.387  -0.000   0.000
  0.000  -0.000   0.000  11.283   0.000  -0.000 -13.614  -0.000
  0.000  -0.000  -0.000   0.000  11.111   0.000  -0.000 -13.387
 pseudopotential strength for first ion, spin component:           2
 12.835 -15.669  -0.000  -0.000  -0.000   0.000   0.000   0.000
-15.669  19.151   0.000   0.000   0.000  -0.000  -0.000  -0.000
 -0.000   0.000  -9.136  -0.000   0.000  11.108   0.000  -0.000
 -0.000   0.000  -0.000  -9.270  -0.000   0.000  11.286   0.000
 -0.000   0.000   0.000  -0.000  -9.136  -0.000   0.000  11.108
  0.000  -0.000  11.108   0.000  -0.000 -13.383  -0.000   0.000
  0.000  -0.000   0.000  11.286   0.000  -0.000 -13.619  -0.000
  0.000  -0.000  -0.000   0.000  11.108   0.000  -0.000 -13.383
 total augmentation occupancy for first ion, spin component:           1
  2.488   0.298   0.000   0.000   0.000   0.000  -0.000   0.000
  0.298   0.070   0.000   0.000   0.000   0.000   0.000   0.000
  0.000   0.000   1.891   0.000  -0.000   0.134   0.000  -0.000
  0.000   0.000   0.000   2.166   0.000  -0.000   0.348  -0.000
  0.000   0.000  -0.000   0.000   1.891  -0.000   0.000   0.134
  0.000   0.000   0.134  -0.000  -0.000   0.018   0.000  -0.000
 -0.000   0.000   0.000   0.348   0.000   0.000   0.063   0.000
  0.000   0.000  -0.000  -0.000   0.134  -0.000   0.000   0.018
 total augmentation occupancy for first ion, spin component:           2
 -0.001   0.001  -0.000   0.000  -0.000   0.000   0.000   0.000
  0.001   0.005  -0.000   0.000  -0.000   0.000   0.000   0.000
 -0.000  -0.000  -0.001  -0.000  -0.000  -0.000   0.000  -0.000
  0.000   0.000  -0.000  -0.004  -0.000   0.000   0.000   0.000
 -0.000  -0.000  -0.000  -0.000  -0.001  -0.000   0.000  -0.000
  0.000   0.000  -0.000   0.000  -0.000  -0.000   0.000  -0.000
  0.000   0.000   0.000   0.000   0.000   0.000   0.000   0.000
  0.000   0.000  -0.000   0.000  -0.000  -0.000   0.000  -0.000


------------------------ aborting loop because EDIFF is reached ----------------------------------------


 


 total charge     
 
# of ion       s       p       d       tot
------------------------------------------
    1        1.566   3.421   0.000   4.987
    2        1.566   3.421   0.000   4.987
    3        1.566   3.421   0.000   4.987
    4        1.566   3.421   0.000   4.987
    5        1.567   3.542   0.000   5.109
    6        1.567   3.542   0.000   5.109
    7        1.551   3.321   0.000   4.873
    8        1.551   3.321   0.000   4.873
    9        1.567   3.542   0.000   5.109
   10        1.567   3.542   0.000   5.109
   11        1.551   3.321   0.000   4.873
   12        1.551   3.321   0.000   4.873
   13        0.672   1.088   6.627   8.388
   14        0.672   1.088   6.627   8.388
   15        0.672   1.088   6.627   8.388
   16        0.672   1.088   6.627   8.388
--------------------------------------------------
tot         21.423  45.489  26.510  93.421
 


 magnetization (x)
 
# of ion       s       p       d       tot
------------------------------------------
    1        0.004  -0.004   0.000  -0.000
    2        0.004  -0.004   0.000  -0.000
    3        0.004  -0.004   0.000  -0.000
    4        0.004  -0.004   0.000  -0.000
    5        0.004   0.017   0.000   0.021
    6        0.004   0.017   0.000   0.021
    7        0.006   0.017   0.000   0.023
    8        0.006   0.017   0.000   0.023
    9        0.004   0.017   0.000   0.021
   10        0.004   0.017   0.000   0.021
   11        0.006   0.017   0.000   0.023
   12        0.006   0.017   0.000   0.023
   13        0.000  -0.000   0.161   0.161
   14        0.000  -0.000   0.161   0.161
   15        0.000  -0.000   0.161   0.161
   16        0.000  -0.000   0.161   0.161
--------------------------------------------------
tot          0.056   0.120   0.646   0.821
 
    CHARGE:  cpu time    0.1878: real time    0.1878
    FORLOC:  cpu time    0.0067: real time    0.0067
    FORNL :  cpu time    0.2348: real time    0.2348
    STRESS:  cpu time    0.7244: real time    0.7245
    FORCOR:  cpu time    0.0781: real time    0.0781
    FORHAR:  cpu time    0.0115: real time    0.0115
    MIXING:  cpu time    0.0083: real time    0.0083
    OFIELD:  cpu time    0.0001: real time    0.0001

  FORCE on cell =-STRESS in cart. coord.  units (eV):
  Direction    XX          YY          ZZ          XY          YZ          ZX
  --------------------------------------------------------------------------------------
  Alpha Z   387.28244   387.28244   387.28244
  Ewald   -1788.66472 -1788.66472 -1680.93022     0.00000    -0.00000    -0.00000
  Hartree   800.58434   800.58434   832.43886    -0.00000    -0.00000    -0.00000
  E(xc)    -521.64839  -521.64839  -521.46244     0.00000    -0.00000     0.00000
  Local    -855.79592  -855.79592  -980.22328     0.00000     0.00000    -0.00000
  n-local  -270.64290  -289.01925  -279.94369    -0.00000     0.00000     0.00000
  augment   232.57446   232.57446   228.75106     0.00000     0.00000    -0.00000
  Kinetic  2021.87602  2029.09903  2014.12813    -0.00000     0.00000     0.00000
  Fock        0.00000     0.00000     0.00000     0.00000     0.00000     0.00000
  -------------------------------------------------------------------------------------
  Total      -0.01133    -0.01133     0.04087     0.00000     0.00000     0.00000
  in kB      -0.08297    -0.08297     0.29921     0.00000     0.00000     0.00000
  external pressure =        0.04 kB  Pullay stress =        0.00 kB


 VOLUME and BASIS-vectors are now :
 -----------------------------------------------------------------------------
  energy-cutoff  :      600.00
  volume of cell :      218.82
      direct lattice vectors                 reciprocal lattice vectors
     7.621352070  0.000000000 -0.000000000     0.131210314  0.000000000  0.000000000
    -0.000000000  7.621352070  0.000000000    -0.000000000  0.131210314 -0.000000000
    -0.000000000  0.000000000  3.767238620     0.000000000 -0.000000000  0.265446419

  length of vectors
     7.621352070  7.621352070  3.767238620     0.131210314  0.131210314  0.265446419


 FORCES acting on ions
    electron-ion (+dipol)            ewald-force                    non-local-force                 convergence-correction
 -----------------------------------------------------------------------------------------------
   -.304E-02 -.304E-02 -.385E-05   0.101E-02 0.101E-02 0.663E-05   0.170E-02 0.170E-02 -.187E-05   0.244E-03 0.244E-03 -.129E-05
   0.304E-02 0.304E-02 -.385E-05   -.101E-02 -.101E-02 0.663E-05   -.170E-02 -.170E-02 -.187E-05   -.244E-03 -.244E-03 -.129E-05
   -.304E-02 0.304E-02 0.385E-05   0.101E-02 -.101E-02 -.663E-05   0.170E-02 -.170E-02 0.187E-05   0.244E-03 -.244E-03 0.129E-05
   0.304E-02 -.304E-02 0.385E-05   -.101E-02 0.101E-02 -.663E-05   -.170E-02 0.170E-02 0.187E-05   -.244E-03 0.244E-03 0.129E-05
   -.358E-04 0.201E-04 -.560E-04   -.613E-02 -.268E-04 0.329E-03   0.447E-02 -.927E-05 -.959E-04   0.182E-02 0.122E-04 -.190E-03
   0.358E-04 -.201E-04 -.560E-04   0.613E-02 0.268E-04 0.329E-03   -.447E-02 0.927E-05 -.959E-04   -.182E-02 -.122E-04 -.190E-03
   0.201E-04 0.358E-04 0.560E-04   -.268E-04 0.613E-02 -.329E-03   -.927E-05 -.447E-02 0.959E-04   0.122E-04 -.182E-02 0.190E-03
   -.201E-04 -.358E-04 0.560E-04   0.268E-04 -.613E-02 -.329E-03   0.927E-05 0.447E-02 0.959E-04   -.122E-04 0.182E-02 0.190E-03
   0.358E-04 0.201E-04 0.560E-04   0.613E-02 -.268E-04 -.329E-03   -.447E-02 -.927E-05 0.959E-04   -.182E-02 0.122E-04 0.190E-03
   -.358E-04 -.201E-04 0.560E-04   -.613E-02 0.268E-04 -.329E-03   0.447E-02 0.927E-05 0.959E-04   0.182E-02 -.122E-04 0.190E-03
   -.201E-04 0.358E-04 -.560E-04   0.268E-04 0.613E-02 0.329E-03   0.927E-05 -.447E-02 -.959E-04   -.122E-04 -.182E-02 -.190E-03
   0.201E-04 -.358E-04 -.560E-04   -.268E-04 -.613E-02 0.329E-03   -.927E-05 0.447E-02 -.959E-04   0.122E-04 0.182E-02 -.190E-03
   -.192E-01 -.192E-01 -.103E-05   0.173E-01 0.173E-01 0.661E-06   -.313E-02 -.313E-02 0.351E-06   0.266E-02 0.266E-02 0.142E-06
   0.192E-01 0.192E-01 -.104E-05   -.173E-01 -.173E-01 0.661E-06   0.313E-02 0.313E-02 0.351E-06   -.266E-02 -.266E-02 0.142E-06
   -.192E-01 0.192E-01 0.104E-05   0.173E-01 -.173E-01 -.661E-06   -.313E-02 0.313E-02 -.351E-06   0.266E-02 -.266E-02 -.142E-06
   0.192E-01 -.192E-01 0.104E-05   -.173E-01 0.173E-01 -.661E-06   0.313E-02 -.313E-02 -.351E-06   -.266E-02 0.266E-02 -.142E-06
 -----------------------------------------------------------------------------------------------
   0.344E-12 -.191E-10 -.322E-10   -.475E-13 0.508E-13 -.855E-14   0.434E-18 -.867E-18 0.135E-19   -.331E-12 0.468E-11 0.190E-11
 
 
 POSITION                                       TOTAL-FORCE (eV/Angst)
 -----------------------------------------------------------------------------------
      5.71615      1.90548      1.88362        -0.000088     -0.000088     -0.000000
      1.90520      5.71588      1.88362         0.000088      0.000088     -0.000000
      1.90548      1.90520      1.88362        -0.000088      0.000088      0.000000
      5.71588      5.71615      1.88362         0.000088     -0.000088      0.000000
      3.81054      5.71601      0.00000         0.000126     -0.000004     -0.000012
      3.81082      1.90534      0.00000        -0.000126      0.000004     -0.000012
      5.71601      3.81082     -0.00000        -0.000004     -0.000126      0.000012
      1.90534      3.81054     -0.00000         0.000004      0.000126      0.000012
      0.00014      1.90534     -0.00000        -0.000126     -0.000004      0.000012
      7.62121      5.71601     -0.00000         0.000126      0.000004      0.000012
      5.71601      0.00014      0.00000         0.000004     -0.000126     -0.000012
      1.90534      7.62121      0.00000        -0.000004      0.000126     -0.000012
      5.71619      1.90552      0.00000        -0.002273     -0.002273      0.000000
      1.90516      5.71583      0.00000         0.002273      0.002273      0.000000
      1.90552      1.90516     -0.00000        -0.002273      0.002273     -0.000000
      5.71583      5.71619     -0.00000         0.002273     -0.002273     -0.000000
 -----------------------------------------------------------------------------------
    total drift:                               -0.000000     -0.000000     -0.000000


--------------------------------------------------------------------------------------------------------



  FREE ENERGIE OF THE ION-ELECTRON SYSTEM (eV)
  ---------------------------------------------------
  free  energy   TOTEN  =      -100.37325586 eV

  energy  without entropy=     -100.35530352  energy(sigma->0) =     -100.36427969
 
 d Force =-0.3376370E-06[-0.141E-05, 0.738E-06]  d Energy = 0.1712539E-05-0.205E-05
 d Force = 0.1609085E-04[ 0.110E-04, 0.212E-04]  d Ewald  =-0.3826762E-01 0.383E-01


--------------------------------------------------------------------------------------------------------


    POTLOK:  cpu time    2.7273: real time    2.7274


--------------------------------------------------------------------------------------------------------


 stress matrix after NEB project (eV)
     -0.01133      0.00000      0.00000
      0.00000     -0.01133      0.00000
      0.00000      0.00000      0.04087
  FORCES: max atom, RMS     0.003214    0.001611
  FORCE total and by dimension    0.006443    0.002273
  Stress total and by dimension    0.043895    0.040865
