 vasp.5.4.4.18Apr17-6-g9f103f2a35 (build Aug 21 2019 12:36:18) complex          
  
 executed on IFC18.0.1.163_CrayMP date 2019.08.30  22:43:50
 running on  330 total cores
 distrk:  each k-point on   66 cores,    5 groups
 distr:  one band on NCORES_PER_BAND=  11 cores,    6 groups


--------------------------------------------------------------------------------------------------------


 INCAR:
 POTCAR:    PAW_PBE O 08Apr2002                   
 POTCAR:    PAW_PBE Ir 06Sep2000                  

 ----------------------------------------------------------------------------- 
|                                                                             |
|           W    W    AA    RRRRR   N    N  II  N    N   GGGG   !!!           |
|           W    W   A  A   R    R  NN   N  II  NN   N  G    G  !!!           |
|           W    W  A    A  R    R  N N  N  II  N N  N  G       !!!           |
|           W WW W  AAAAAA  RRRRR   N  N N  II  N  N N  G  GGG   !            |
|           WW  WW  A    A  R   R   N   NN  II  N   NN  G    G                |
|           W    W  A    A  R    R  N    N  II  N    N   GGGG   !!!           |
|                                                                             |
|      You have enabled k-point parallelism (KPAR>1).                         |
|      This developmental code was originally  written by Paul Kent at ORNL,  |
|      and carefully double checked in Vienna.                                |
|      GW as well as linear response parallelism added by Martijn Marsman     |
|      and Georg Kresse.                                                      |
|      Carefully verify results versus KPAR=1.                                |
|      Report problems to Paul Kent and Vienna.                               |
|                                                                             |
 ----------------------------------------------------------------------------- 

 POTCAR:    PAW_PBE O 08Apr2002                   
   VRHFIN =O: s2p4                                                              
   LEXCH  = PE                                                                  
   EATOM  =   432.3788 eV,   31.7789 Ry                                         
                                                                                
   TITEL  = PAW_PBE O 08Apr2002                                                 
   LULTRA =        F    use ultrasoft PP ?                                      
   IUNSCR =        1    unscreen: 0-lin 1-nonlin 2-no                           
   RPACOR =    1.200    partial core radius                                     
   POMASS =   16.000; ZVAL   =    6.000    mass and valenz                      
   RCORE  =    1.520    outmost cutoff radius                                   
   RWIGS  =    1.550; RWIGS  =    0.820    wigner-seitz radius (au A)           
   ENMAX  =  400.000; ENMIN  =  300.000 eV                                      
   ICORE  =        2    local potential                                         
   LCOR   =        T    correct aug charges                                     
   LPAW   =        T    paw PP                                                  
   EAUG   =  605.392                                                            
   DEXC   =    0.000                                                            
   RMAX   =    1.553    core radius for proj-oper                               
   RAUG   =    1.300    factor for augmentation sphere                          
   RDEP   =    1.550    radius for radial grids                                 
   RDEPT  =    1.329    core radius for aug-charge                              
                                                                                
   Atomic configuration                                                         
    4 entries                                                                   
     n  l   j            E        occ.                                          
     1  0  0.50      -514.6923   2.0000                                         
     2  0  0.50       -23.9615   2.0000                                         
     2  1  0.50        -9.0305   4.0000                                         
     3  2  1.50        -9.5241   0.0000                                         
   Description                                                                  
     l       E           TYP  RCUT    TYP  RCUT                                 
     0    -23.9615318     23  1.200                                             
     0     -9.5240782     23  1.200                                             
     1     -9.0304911     23  1.520                                             
     1      8.1634956     23  1.520                                             
     2     -9.5240782      7  1.500                                             
  local pseudopotential read in
  partial core-charges read in
  partial kinetic energy density read in
  kinetic energy density of atom read in
  atomic valenz-charges read in
  non local Contribution for L=           0  read in
    real space projection operators read in
  non local Contribution for L=           0  read in
    real space projection operators read in
  non local Contribution for L=           1  read in
    real space projection operators read in
  non local Contribution for L=           1  read in
    real space projection operators read in
    PAW grid and wavefunctions read in
 
   number of l-projection  operators is LMAX  =           4
   number of lm-projection operators is LMMAX =           8
 
 POTCAR:    PAW_PBE Ir 06Sep2000                  
   VRHFIN =Ir: s1d8                                                             
   LEXCH  = PE                                                                  
   EATOM  =   560.1833 eV,   41.1723 Ry                                         
                                                                                
   TITEL  = PAW_PBE Ir 06Sep2000                                                
   LULTRA =        F    use ultrasoft PP ?                                      
   IUNSCR =        1    unscreen: 0-lin 1-nonlin 2-no                           
   RPACOR =    2.250    partial core radius                                     
   POMASS =  192.220; ZVAL   =    9.000    mass and valenz                      
   RCORE  =    2.600    outmost cutoff radius                                   
   RWIGS  =    2.690; RWIGS  =    1.423    wigner-seitz radius (au A)           
   ENMAX  =  210.864; ENMIN  =  158.148 eV                                      
   RCLOC  =    1.857    cutoff for local pot                                    
   LCOR   =        T    correct aug charges                                     
   LPAW   =        T    paw PP                                                  
   EAUG   =  318.962                                                            
   DEXC   =    0.000                                                            
   RMAX   =    2.667    core radius for proj-oper                               
   RAUG   =    1.300    factor for augmentation sphere                          
   RDEP   =    2.748    radius for radial grids                                 
   RDEPT  =    2.300    core radius for aug-charge                              
                                                                                
   Atomic configuration                                                         
   16 entries                                                                   
     n  l   j            E        occ.                                          
     1  0  0.50    -76100.0449   2.0000                                         
     2  0  0.50    -13308.1683   2.0000                                         
     2  1  1.50    -11558.0021   6.0000                                         
     3  0  0.50     -3110.7274   2.0000                                         
     3  1  1.50     -2599.2109   6.0000                                         
     3  2  2.50     -2037.1515  10.0000                                         
     4  0  0.50      -661.6001   2.0000                                         
     4  1  1.50      -493.8981   6.0000                                         
     4  2  2.50      -288.1909  10.0000                                         
     4  3  3.50       -59.5718  14.0000                                         
     5  0  0.50       -95.3879   2.0000                                         
     5  1  1.50       -52.2747   6.0000                                         
     5  2  2.50        -5.4180   8.0000                                         
     6  0  0.50        -5.5479   1.0000                                         
     6  1  1.50        -6.8029   0.0000                                         
     5  3  2.50        -1.3606   0.0000                                         
   Description                                                                  
     l       E           TYP  RCUT    TYP  RCUT                                 
     2     -5.4179967     23  2.600                                             
     2     -6.7785793     23  2.600                                             
     0     -5.5478636     23  2.600                                             
     0      2.2542272     23  2.600                                             
     1     -2.7211652     23  2.600                                             
     1     20.4087390     23  2.600                                             
  local pseudopotential read in
  partial core-charges read in
  partial kinetic energy density read in
  atomic valenz-charges read in
  non local Contribution for L=           2  read in
    real space projection operators read in
  non local Contribution for L=           2  read in
    real space projection operators read in
  non local Contribution for L=           0  read in
    real space projection operators read in
  non local Contribution for L=           0  read in
    real space projection operators read in
  non local Contribution for L=           1  read in
    real space projection operators read in
  non local Contribution for L=           1  read in
    real space projection operators read in
    PAW grid and wavefunctions read in
 
   number of l-projection  operators is LMAX  =           6
   number of lm-projection operators is LMMAX =          18
 
 Optimization of the real space projectors (new method)

 maximal supplied QI-value         = 24.76
 optimisation between [QCUT,QGAM] = [ 12.38, 25.00] = [ 42.90,175.06] Ry 
 Optimized for a Real-space Cutoff    1.16 Angstroem

   l    n(q)    QCUT    max X(q) W(low)/X(q) W(high)/X(q)  e(spline) 
   0      9    12.378    20.381    0.16E-03    0.67E-05    0.31E-06
   0      9    12.378    15.268    0.17E-03    0.81E-05    0.33E-06
   1      8    12.378     5.964    0.20E-03    0.16E-03    0.30E-06
   1      8    12.378     5.382    0.18E-03    0.14E-03    0.26E-06
 Optimization of the real space projectors (new method)

 maximal supplied QI-value         = 14.36
 optimisation between [QCUT,QGAM] = [ 12.49, 24.99] = [ 43.72,174.87] Ry 
 Optimized for a Real-space Cutoff    1.47 Angstroem

   l    n(q)    QCUT    max X(q) W(low)/X(q) W(high)/X(q)  e(spline) 
   2     10    12.495   134.116    0.21E-03    0.83E-03    0.17E-05
   2     10    12.495   130.192    0.21E-03    0.83E-03    0.17E-05
   0     11    12.495    60.310    0.70E-04    0.17E-03    0.90E-06
   0     11    12.495    39.218    0.65E-04    0.15E-03    0.85E-06
   1     11    12.495    18.439    0.21E-03    0.37E-04    0.78E-06
   1     11    12.495    12.760    0.17E-03    0.26E-04    0.62E-06
  PAW_PBE O 08Apr2002                   :
 energy of atom  1       EATOM= -432.3788
 kinetic energy error for atom=    0.0168 (will be added to EATOM!!)
  PAW_PBE Ir 06Sep2000                  :
 energy of atom  2       EATOM= -560.1833
 kinetic energy error for atom=    0.0008 (will be added to EATOM!!)
 
 
 POSCAR:  O Ir                                   
  positions in cartesian coordinates
  No initial velocities read in
 exchange correlation table for  LEXCH =        8
   RHO(1)=    0.500       N(1)  =     2000
   RHO(2)=  100.500       N(2)  =     4000

 VTST: version 3.2, (02/03/18)

 CHAIN: initializing optimizer
 
 OPT: Using VASP Conjugate-Gradient optimizer
 CHAIN: Read ICHAIN            0
 
 POSCAR:  O Ir                                   
  positions in cartesian coordinates
  No initial velocities read in
 


--------------------------------------------------------------------------------------------------------


 ion  position               nearest neighbor table
   1  0.750  0.250  0.500-  13 1.88  13 1.88
   2  0.250  0.750  0.500-  14 1.88  14 1.88
   3  0.250  0.250  0.500-  15 1.88  15 1.88
   4  0.750  0.750  0.500-  16 1.88  16 1.88
   5  0.500  0.750  0.000-  14 1.91  16 1.91
   6  0.500  0.250  0.000-  13 1.91  15 1.91
   7  0.750  0.500  0.000-  16 1.91  13 1.91
   8  0.250  0.500  0.000-  15 1.91  14 1.91
   9  0.000  0.250  0.000-  15 1.91  13 1.91
  10  1.000  0.750  0.000-  16 1.91  14 1.91
  11  0.750  0.000  0.000-  13 1.91  16 1.91
  12  0.250  1.000  0.000-  14 1.91  15 1.91
  13  0.750  0.250  0.000-   1 1.88   1 1.88  11 1.91   6 1.91   7 1.91   9 1.91
  14  0.250  0.750  0.000-   2 1.88   2 1.88  12 1.91   5 1.91   8 1.91  10 1.91
  15  0.250  0.250  0.000-   3 1.88   3 1.88   8 1.91   9 1.91  12 1.91   6 1.91
  16  0.750  0.750  0.000-   4 1.88   4 1.88   7 1.91  10 1.91  11 1.91   5 1.91
 
  LATTYP: Found a simple tetragonal cell.
 ALAT       =     7.6215500000
 C/A-ratio  =     0.4942498573
  
  Lattice vectors:
  
 A1 = (   7.6215500000,   0.0000000000,   0.0000000000)
 A2 = (   0.0000000000,   7.6215500000,   0.0000000000)
 A3 = (   0.0000000000,   0.0000000000,   3.7669500000)


Analysis of symmetry for initial positions (statically):
=====================================================================
 Subroutine PRICEL returns:
 Original cell was already a primitive cell.
 

 Routine SETGRP: Setting up the symmetry group for a 
 simple tetragonal supercell.


 Subroutine GETGRP returns: Found 16 space group operations
 (whereof  8 operations were pure point group operations)
 out of a pool of 16 trial point group operations.


The static configuration has the point symmetry C_4h.
 The point group associated with its full space group is D_4h.


Analysis of symmetry for dynamics (positions and initial velocities):
=====================================================================
 Subroutine PRICEL returns:
 Original cell was already a primitive cell.
 

 Routine SETGRP: Setting up the symmetry group for a 
 simple tetragonal supercell.


 Subroutine GETGRP returns: Found 16 space group operations
 (whereof  8 operations were pure point group operations)
 out of a pool of 16 trial point group operations.


The dynamic configuration has the point symmetry C_4h.
 The point group associated with its full space group is D_4h.


Analysis of structural, dynamic, and magnetic symmetry:
=====================================================================
 Subroutine PRICEL returns:
 Original cell was already a primitive cell.
 

 Routine SETGRP: Setting up the symmetry group for a 
 simple tetragonal supercell.


 Subroutine GETGRP returns: Found 16 space group operations
 (whereof  8 operations were pure point group operations)
 out of a pool of 16 trial point group operations.


The magnetic configuration has the point symmetry C_4h.
 The point group associated with its full space group is D_4h.


 Subroutine INISYM returns: Found 16 space group operations
 (whereof  8 operations are pure point group operations),
 and found     1 'primitive' translations

 
 
 KPOINTS: KPOINTS created by Atomic Simulation Env

Automatic generation of k-mesh.
Space group operators:
 irot       det(A)        alpha          n_x          n_y          n_z        tau_x        tau_y        tau_z
    1     1.000000     0.000000     1.000000     0.000000     0.000000     0.000000     0.000000     0.000000
    2    -1.000000     0.000000     1.000000     0.000000     0.000000     0.000000     0.000000     0.000000
    3     1.000000    90.000000     0.000000     0.000000    -1.000000     0.000000     0.000000     0.000000
    4    -1.000000    90.000000     0.000000     0.000000    -1.000000     0.000000     0.000000     0.000000
    5     1.000000   180.000000     0.000000     0.000000     1.000000     0.000000     0.000000     0.000000
    6    -1.000000   180.000000     0.000000     0.000000     1.000000     0.000000     0.000000     0.000000
    7     1.000000    90.000000     0.000000     0.000000     1.000000     0.000000     0.000000     0.000000
    8    -1.000000    90.000000     0.000000     0.000000     1.000000     0.000000     0.000000     0.000000
    9     1.000000   180.000000     0.000000     1.000000     0.000000     0.500000     0.500000     0.000000
   10    -1.000000   180.000000     0.000000     1.000000     0.000000     0.500000     0.500000     0.000000
   11     1.000000   180.000000     0.707107     0.707107     0.000000     0.500000     0.500000     0.000000
   12    -1.000000   180.000000     0.707107     0.707107     0.000000     0.500000     0.500000     0.000000
   13     1.000000   180.000000     1.000000     0.000000     0.000000     0.500000     0.500000     0.000000
   14    -1.000000   180.000000     1.000000     0.000000     0.000000     0.500000     0.500000     0.000000
   15     1.000000   180.000000     0.707107    -0.707107     0.000000     0.500000     0.500000     0.000000
   16    -1.000000   180.000000     0.707107    -0.707107     0.000000     0.500000     0.500000     0.000000
 
 Subroutine IBZKPT returns following result:
 ===========================================
 
 Found      9 irreducible k-points:
 
 Following reciprocal coordinates:
            Coordinates               Weight
  0.000000  0.000000  0.000000      1.000000
  0.500000  0.000000  0.000000      2.000000
  0.500000  0.500000  0.000000      1.000000
  0.000000  0.000000  0.200000      2.000000
  0.500000  0.000000  0.200000      4.000000
  0.500000  0.500000  0.200000      2.000000
  0.000000  0.000000  0.400000      2.000000
  0.500000  0.000000  0.400000      4.000000
  0.500000  0.500000  0.400000      2.000000
 
 Following cartesian coordinates:
            Coordinates               Weight
  0.000000  0.000000  0.000000      1.000000
  0.065603  0.000000  0.000000      2.000000
  0.065603  0.065603  0.000000      1.000000
  0.000000  0.000000  0.053093      2.000000
  0.065603  0.000000  0.053093      4.000000
  0.065603  0.065603  0.053093      2.000000
  0.000000  0.000000  0.106187      2.000000
  0.065603  0.000000  0.106187      4.000000
  0.065603  0.065603  0.106187      2.000000
 


--------------------------------------------------------------------------------------------------------




 Dimension of arrays:
   k-points           NKPTS =      9   k-points in BZ     NKDIM =      9   number of bands    NBANDS=     72
   number of dos      NEDOS =    301   number of ions     NIONS =     16
   non local maximal  LDIM  =      6   non local SUM 2l+1 LMDIM =     18
   total plane-waves  NPLWV = 122880
   max r-space proj   IRMAX =   7533   max aug-charges    IRDMAX=  40803
   dimension x,y,z NGX =    64 NGY =   64 NGZ =   30
   dimension x,y,z NGXF=   128 NGYF=  128 NGZF=   60
   support grid    NGXF=   128 NGYF=  128 NGZF=   60
   ions per type =              12   4
   NGX,Y,Z   is equivalent  to a cutoff of  13.96, 13.96, 13.24 a.u.
   NGXF,Y,Z  is equivalent  to a cutoff of  27.92, 27.92, 26.48 a.u.

 SYSTEM =  unknown system                          
 POSCAR =   O Ir                                   

 Startparameter for this run:
   NWRITE =      2    write-flag & timer
   PREC   = accura    normal or accurate (medium, high low for compatibility)
   ISTART =      0    job   : 0-new  1-cont  2-samecut
   ICHARG =      2    charge: 1-file 2-atom 10-const
   ISPIN  =      2    spin polarized calculation?
   LNONCOLLINEAR =      F non collinear calculations
   LSORBIT =      F    spin-orbit coupling
   INIWAV =      1    electr: 0-lowe 1-rand  2-diag
   LASPH  =      T    aspherical Exc in radial PAW
   METAGGA=      F    non-selfconsistent MetaGGA calc.

 Electronic Relaxation 1
   ENCUT  =  600.0 eV  44.10 Ry    6.64 a.u.  15.22 15.22  7.52*2*pi/ulx,y,z
   ENINI  =  600.0     initial cutoff
   ENAUG  =  605.4 eV  augmentation charge cutoff
   NELM   =    220;   NELMIN=  2; NELMDL= -5     # of ELM steps 
   EDIFF  = 0.1E-05   stopping-criterion for ELM
   LREAL  =      T    real-space projection
   NLSPLINE    = F    spline interpolate recip. space projectors
   LCOMPAT=      F    compatible to vasp.4.4
   GGA_COMPAT  = T    GGA compatible to vasp.4.4-vasp.4.6
   LMAXPAW     = -100 max onsite density
   LMAXMIX     =    6 max onsite mixed and CHGCAR
   VOSKOWN=      0    Vosko Wilk Nusair interpolation
   ROPT   =   -0.00025  -0.00025
 Ionic relaxation
   EDIFFG = -.1E-02   stopping-criterion for IOM
   NSW    =    150    number of steps for IOM
   NBLOCK =      1;   KBLOCK =    150    inner block; outer block 
   IBRION =      2    ionic relax: 0-MD 1-quasi-New 2-CG
   NFREE  =      1    steps in history (QN), initial steepest desc. (CG)
   ISIF   =      3    stress and relaxation
   IWAVPR =     11    prediction:  0-non 1-charg 2-wave 3-comb
   ISYM   =      2    0-nonsym 1-usesym 2-fastsym
   LCORR  =      T    Harris-Foulkes like correction to forces

   POTIM  = 0.0300    time-step for ionic-motion
   TEIN   =    0.0    initial temperature
   TEBEG  =    0.0;   TEEND  =   0.0 temperature during run
   SMASS  =  -3.00    Nose mass-parameter (am)
   estimated Nose-frequenzy (Omega)   =  0.10E-29 period in steps =****** mass=  -0.133E-26a.u.
   SCALEE = 1.0000    scale energy and forces
   NPACO  =    256;   APACO  = 16.0  distance and # of slots for P.C.
   PSTRESS=    0.0 pullay stress

  Mass of Ions in am
   POMASS =  16.00192.22
  Ionic Valenz
   ZVAL   =   6.00  9.00
  Atomic Wigner-Seitz radii
   RWIGS  =  -1.00 -1.00
  virtual crystal weights 
   VCA    =   1.00  1.00
   NELECT =     108.0000    total number of electrons
   NUPDOWN=      -1.0000    fix difference up-down

 DOS related values:
   EMIN   =  10.00;   EMAX   =-10.00  energy-range for DOS
   EFERMI =   0.00
   ISMEAR =     0;   SIGMA  =   0.05  broadening in eV -4-tet -1-fermi 0-gaus

 Electronic relaxation 2 (details)
   IALGO  =     68    algorithm
   LDIAG  =      T    sub-space diagonalisation (order eigenvalues)
   LSUBROT=      F    optimize rotation matrix (better conditioning)
   TURBO    =      0    0=normal 1=particle mesh
   IRESTART =      0    0=no restart 2=restart with 2 vectors
   NREBOOT  =      0    no. of reboots
   NMIN     =      0    reboot dimension
   EREF     =   0.00    reference energy to select bands
   IMIX   =      4    mixing-type and parameters
     AMIX     =   0.20;   BMIX     =  0.00
     AMIX_MAG =   0.10;   BMIX_MAG =  0.00
     AMIN     =   0.10
     WC   =   100.;   INIMIX=   0;  MIXPRE=   1;  MAXMIX= -45

 Intra band minimization:
   WEIMIN = 0.0010     energy-eigenvalue tresh-hold
   EBREAK =  0.35E-08  absolut break condition
   DEPER  =   0.30     relativ break condition  

   TIME   =   0.40     timestep for ELM

  volume/ion in A,a.u.               =      13.68        92.29
  Fermi-wavevector in a.u.,A,eV,Ry     =   1.293771  2.444872 22.774006  1.673842
  Thomas-Fermi vector in A             =   2.425395
 
 Write flags
   LWAVE        =      T    write WAVECAR
   LDOWNSAMPLE  =      F    k-point downsampling of WAVECAR
   LCHARG       =      T    write CHGCAR
   LVTOT        =      F    write LOCPOT, total local potential
   LVHAR        =      F    write LOCPOT, Hartree potential only
   LELF         =      F    write electronic localiz. function (ELF)
   LORBIT       =     11    0 simple, 1 ext, 2 COOP (PROOUT), +10 PAW based schemes


 Dipole corrections
   LMONO  =      F    monopole corrections only (constant potential shift)
   LDIPOL =      F    correct potential (dipole corrections)
   IDIPOL =      0    1-x, 2-y, 3-z, 4-all directions 
   EPSILON=  1.0000000 bulk dielectric constant

 Exchange correlation treatment:
   GGA     =    PE    GGA type
   LEXCH   =     8    internal setting for exchange type
   VOSKOWN=      0    Vosko Wilk Nusair interpolation
   LHFCALC =     F    Hartree Fock is set to
   LHFONE  =     F    Hartree Fock one center treatment
   AEXX    =    0.0000 exact exchange contribution

 Linear response parameters
   LEPSILON=     F    determine dielectric tensor
   LRPA    =     F    only Hartree local field effects (RPA)
   LNABLA  =     F    use nabla operator in PAW spheres
   LVEL    =     F    velocity operator in full k-point grid
   LINTERFAST=   F  fast interpolation
   KINTER  =     0    interpolate to denser k-point grid
   CSHIFT  =0.1000    complex shift for real part using Kramers Kronig
   OMEGAMAX=  -1.0    maximum frequency
   DEG_THRESHOLD= 0.2000000E-02 threshold for treating states as degnerate
   RTIME   =   -0.100 relaxation time in fs
  (WPLASMAI=    0.000 imaginary part of plasma frequency in eV, 0.658/RTIME)
   DFIELD  = 0.0000000 0.0000000 0.0000000 field for delta impulse in time
 
 Orbital magnetization related:
   ORBITALMAG=     F  switch on orbital magnetization
   LCHIMAG   =     F  perturbation theory with respect to B field
   DQ        =  0.001000  dq finite difference perturbation B field
   LLRAUG    =     F  two centre corrections for induced B field



--------------------------------------------------------------------------------------------------------


 conjugate gradient relaxation of ions
 charge density and potential will be updated during run
 spin polarized calculation
 RMM-DIIS sequential band-by-band and
  variant of blocked Davidson during initial phase
 perform sub-space diagonalisation
    before iterative eigenvector-optimisation
 modified Broyden-mixing scheme, WC =      100.0
 initial mixing is a simple linear mixing with ALPHA =  0.2000
 Hartree-type preconditioning will be used
 using additional bands           18
 real space projection scheme for non local part
 use partial core corrections
 calculate Harris-corrections to forces 
   (improved forces if not selfconsistent)
 use gradient corrections 
 use of overlap-Matrix (Vanderbilt PP)
 Gauss-broadening in eV      SIGMA  =   0.05


--------------------------------------------------------------------------------------------------------


  energy-cutoff  :      600.00
  volume of cell :      218.81
      direct lattice vectors                 reciprocal lattice vectors
     7.621550000  0.000000000  0.000000000     0.131206907  0.000000000  0.000000000
     0.000000000  7.621550000  0.000000000     0.000000000  0.131206907  0.000000000
     0.000000000  0.000000000  3.766950000     0.000000000  0.000000000  0.265466757

  length of vectors
     7.621550000  7.621550000  3.766950000     0.131206907  0.131206907  0.265466757


 
 k-points in units of 2pi/SCALE and weight: KPOINTS created by Atomic Simulation Env
   0.00000000  0.00000000  0.00000000       0.050
   0.06560345  0.00000000  0.00000000       0.100
   0.06560345  0.06560345  0.00000000       0.050
   0.00000000  0.00000000  0.05309335       0.100
   0.06560345  0.00000000  0.05309335       0.200
   0.06560345  0.06560345  0.05309335       0.100
   0.00000000  0.00000000  0.10618670       0.100
   0.06560345  0.00000000  0.10618670       0.200
   0.06560345  0.06560345  0.10618670       0.100
 
 k-points in reciprocal lattice and weights: KPOINTS created by Atomic Simulation Env
   0.00000000  0.00000000  0.00000000       0.050
   0.50000000  0.00000000  0.00000000       0.100
   0.50000000  0.50000000  0.00000000       0.050
   0.00000000  0.00000000  0.20000000       0.100
   0.50000000  0.00000000  0.20000000       0.200
   0.50000000  0.50000000  0.20000000       0.100
   0.00000000  0.00000000  0.40000000       0.100
   0.50000000  0.00000000  0.40000000       0.200
   0.50000000  0.50000000  0.40000000       0.100
 
 position of ions in fractional coordinates (direct lattice) 
   0.75001000  0.25001000  0.50000000
   0.24999000  0.74999000  0.50000000
   0.25001000  0.24999000  0.50000000
   0.74999000  0.75001000  0.50000000
   0.49998000  0.75000000  0.00000000
   0.50002000  0.25000000  0.00000000
   0.75000000  0.50002000  0.00000000
   0.25000000  0.49998000  0.00000000
   0.00002000  0.25000000  0.00000000
   0.99998000  0.75000000  0.00000000
   0.75000000  0.00002000  0.00000000
   0.25000000  0.99998000  0.00000000
   0.75001000  0.25001000  0.00000000
   0.24999000  0.74999000  0.00000000
   0.25001000  0.24999000  0.00000000
   0.74999000  0.75001000  0.00000000
 
 position of ions in cartesian coordinates  (Angst):
   5.71623872  1.90546372  1.88347500
   1.90531128  5.71608628  1.88347500
   1.90546372  1.90531128  1.88347500
   5.71608628  5.71623872  1.88347500
   3.81062257  5.71616250  0.00000000
   3.81092743  1.90538750  0.00000000
   5.71616250  3.81092743  0.00000000
   1.90538750  3.81062257  0.00000000
   0.00015243  1.90538750  0.00000000
   7.62139757  5.71616250  0.00000000
   5.71616250  0.00015243  0.00000000
   1.90538750  7.62139757  0.00000000
   5.71623872  1.90546372  0.00000000
   1.90531128  5.71608628  0.00000000
   1.90546372  1.90531128  0.00000000
   5.71608628  5.71623872  0.00000000
 


--------------------------------------------------------------------------------------------------------


 k-point  1 :   0.0000 0.0000 0.0000  plane waves:    7283
 k-point  2 :   0.5000 0.0000 0.0000  plane waves:    7334
 k-point  3 :   0.5000 0.5000 0.0000  plane waves:    7308
 k-point  4 :   0.0000 0.0000 0.2000  plane waves:    7307
 k-point  5 :   0.5000 0.0000 0.2000  plane waves:    7328
 k-point  6 :   0.5000 0.5000 0.2000  plane waves:    7320
 k-point  7 :   0.0000 0.0000 0.4000  plane waves:    7295
 k-point  8 :   0.5000 0.0000 0.4000  plane waves:    7264
 k-point  9 :   0.5000 0.5000 0.4000  plane waves:    7280

 maximum and minimum number of plane-waves per node :       698      624

 maximum number of plane-waves:      7334
 maximum index in each direction: 
   IXMAX=   15   IYMAX=   15   IZMAX=    7
   IXMIN=  -15   IYMIN=  -15   IZMIN=   -7


 real space projection operators:
  total allocation   :       6805.69 KBytes
  max/ min on nodes  :        654.56        587.38


 parallel 3D FFT for wavefunctions:
    minimum data exchange during FFTs selected (reduces bandwidth)
 parallel 3D FFT for charge:
    minimum data exchange during FFTs selected (reduces bandwidth)


 total amount of memory used by VASP MPI-rank0    38488. kBytes
=======================================================================

   base      :      30000. kBytes
   nonlr-proj:       2853. kBytes
   fftplans  :        890. kBytes
   grid      :       2195. kBytes
   one-center:         62. kBytes
   wavefun   :       2488. kBytes
 
     INWAV:  cpu time    0.0002: real time    0.0002
 Broyden mixing: mesh for mixing (old mesh)
   NGX = 31   NGY = 31   NGZ = 15
  (NGX  =128   NGY  =128   NGZ  = 60)
  gives a total of  14415 points

 initial charge density was supplied:
 charge density of overlapping atoms calculated
 number of electron     108.0000000 magnetization      16.0000000
 keeping initial charge density in first step


--------------------------------------------------------------------------------------------------------


 Maximum index for non-local projection operator          708
 Maximum index for augmentation-charges          435 (set IRDMAX)


--------------------------------------------------------------------------------------------------------


 First call to EWALD:  gamma=   0.294
 Maximum number of real-space cells 2x 2x 4
 Maximum number of reciprocal cells 3x 3x 2

    FEWALD:  cpu time    0.0121: real time    0.0121


--------------------------------------- Iteration      1(   1)  ---------------------------------------


    POTLOK:  cpu time    0.0924: real time    0.1594
    SETDIJ:  cpu time    2.6695: real time    2.6767
     EDDAV:  cpu time    0.6496: real time    0.7508
       DOS:  cpu time    0.0075: real time    0.0113
    --------------------------------------------
      LOOP:  cpu time    3.4191: real time    3.5983

 eigenvalue-minimisations  :  2592
 total energy-change (2. order) : 0.1210913E+04  (-0.5777893E+04)
 number of electron     108.0000000 magnetization      16.0000000
 augmentation part      108.0000000 magnetization      16.0000000

 Free energy of the ion-electron system (eV)
  ---------------------------------------------------
  alpha Z        PSCENC =       387.29199637
  Ewald energy   TEWEN  =     -5258.27864654
  -Hartree energ DENC   =     -2400.62729216
  -exchange      EXHF   =         0.00000000
  -V(xc)+E(xc)   XCENC  =       264.59006532
  PAW double counting   =      6362.12184073    -6222.39335305
  entropy T*S    EENTRO =        -0.00574333
  eigenvalues    EBANDS =       649.14007599
  atomic energy  EATOM  =      7429.07371459
  Solvation  Ediel_sol  =         0.00000000
  ---------------------------------------------------
  free energy    TOTEN  =      1210.91265791 eV

  energy without entropy =     1210.91840124  energy(sigma->0) =     1210.91552958


--------------------------------------------------------------------------------------------------------




--------------------------------------- Iteration      1(   2)  ---------------------------------------


     EDDAV:  cpu time    0.6170: real time    0.6666
       DOS:  cpu time    0.0054: real time    0.0054
    --------------------------------------------
      LOOP:  cpu time    0.6224: real time    0.6720

 eigenvalue-minimisations  :  2628
 total energy-change (2. order) :-0.1179496E+04  (-0.1119597E+04)
 number of electron     108.0000000 magnetization      16.0000000
 augmentation part      108.0000000 magnetization      16.0000000

 Free energy of the ion-electron system (eV)
  ---------------------------------------------------
  alpha Z        PSCENC =       387.29199637
  Ewald energy   TEWEN  =     -5258.27864654
  -Hartree energ DENC   =     -2400.62729216
  -exchange      EXHF   =         0.00000000
  -V(xc)+E(xc)   XCENC  =       264.59006532
  PAW double counting   =      6362.12184073    -6222.39335305
  entropy T*S    EENTRO =        -0.01328885
  eigenvalues    EBANDS =      -530.34864237
  atomic energy  EATOM  =      7429.07371459
  Solvation  Ediel_sol  =         0.00000000
  ---------------------------------------------------
  free energy    TOTEN  =        31.41639404 eV

  energy without entropy =       31.42968289  energy(sigma->0) =       31.42303846


--------------------------------------------------------------------------------------------------------




--------------------------------------- Iteration      1(   3)  ---------------------------------------


     EDDAV:  cpu time    0.7898: real time    0.8391
       DOS:  cpu time    0.0050: real time    0.0050
    --------------------------------------------
      LOOP:  cpu time    0.7948: real time    0.8440

 eigenvalue-minimisations  :  3492
 total energy-change (2. order) :-0.1610918E+03  (-0.1527274E+03)
 number of electron     108.0000000 magnetization      16.0000000
 augmentation part      108.0000000 magnetization      16.0000000

 Free energy of the ion-electron system (eV)
  ---------------------------------------------------
  alpha Z        PSCENC =       387.29199637
  Ewald energy   TEWEN  =     -5258.27864654
  -Hartree energ DENC   =     -2400.62729216
  -exchange      EXHF   =         0.00000000
  -V(xc)+E(xc)   XCENC  =       264.59006532
  PAW double counting   =      6362.12184073    -6222.39335305
  entropy T*S    EENTRO =        -0.01248865
  eigenvalues    EBANDS =      -691.44121074
  atomic energy  EATOM  =      7429.07371459
  Solvation  Ediel_sol  =         0.00000000
  ---------------------------------------------------
  free energy    TOTEN  =      -129.67537414 eV

  energy without entropy =     -129.66288549  energy(sigma->0) =     -129.66912981


--------------------------------------------------------------------------------------------------------




--------------------------------------- Iteration      1(   4)  ---------------------------------------


     EDDAV:  cpu time    0.6630: real time    0.7112
       DOS:  cpu time    0.0040: real time    0.0040
    --------------------------------------------
      LOOP:  cpu time    0.6671: real time    0.7152

 eigenvalue-minimisations  :  2844
 total energy-change (2. order) :-0.5672152E+01  (-0.5634950E+01)
 number of electron     108.0000000 magnetization      16.0000000
 augmentation part      108.0000000 magnetization      16.0000000

 Free energy of the ion-electron system (eV)
  ---------------------------------------------------
  alpha Z        PSCENC =       387.29199637
  Ewald energy   TEWEN  =     -5258.27864654
  -Hartree energ DENC   =     -2400.62729216
  -exchange      EXHF   =         0.00000000
  -V(xc)+E(xc)   XCENC  =       264.59006532
  PAW double counting   =      6362.12184073    -6222.39335305
  entropy T*S    EENTRO =        -0.01692363
  eigenvalues    EBANDS =      -697.10892731
  atomic energy  EATOM  =      7429.07371459
  Solvation  Ediel_sol  =         0.00000000
  ---------------------------------------------------
  free energy    TOTEN  =      -135.34752569 eV

  energy without entropy =     -135.33060206  energy(sigma->0) =     -135.33906388


--------------------------------------------------------------------------------------------------------




--------------------------------------- Iteration      1(   5)  ---------------------------------------


     EDDAV:  cpu time    0.7108: real time    0.7589
       DOS:  cpu time    0.0045: real time    0.0045
    CHARGE:  cpu time    0.1613: real time    0.1714
    MIXING:  cpu time    0.0121: real time    0.0165
    --------------------------------------------
      LOOP:  cpu time    0.8888: real time    0.9512

 eigenvalue-minimisations  :  3180
 total energy-change (2. order) :-0.1586576E+00  (-0.1585831E+00)
 number of electron     108.0000023 magnetization      14.7257382
 augmentation part       15.9581689 magnetization      12.8980694

 Broyden mixing:
  rms(total) = 0.10289E+02    rms(broyden)= 0.10289E+02
  rms(prec ) = 0.11390E+02
  weight for this iteration     100.00

 Free energy of the ion-electron system (eV)
  ---------------------------------------------------
  alpha Z        PSCENC =       387.29199637
  Ewald energy   TEWEN  =     -5258.27864654
  -Hartree energ DENC   =     -2400.62729216
  -exchange      EXHF   =         0.00000000
  -V(xc)+E(xc)   XCENC  =       264.59006532
  PAW double counting   =      6362.12184073    -6222.39335305
  entropy T*S    EENTRO =        -0.01704364
  eigenvalues    EBANDS =      -697.26746494
  atomic energy  EATOM  =      7429.07371459
  Solvation  Ediel_sol  =         0.00000000
  ---------------------------------------------------
  free energy    TOTEN  =      -135.50618333 eV

  energy without entropy =     -135.48913969  energy(sigma->0) =     -135.49766151


--------------------------------------------------------------------------------------------------------




--------------------------------------- Iteration      1(   6)  ---------------------------------------


    POTLOK:  cpu time    0.0755: real time    0.1198
    SETDIJ:  cpu time    2.6598: real time    2.6601
    EDDIAG:  cpu time    0.1724: real time    0.1811
  RMM-DIIS:  cpu time    0.2702: real time    0.2750
    ORTHCH:  cpu time    0.0102: real time    0.0102
       DOS:  cpu time    0.0044: real time    0.0044
    CHARGE:  cpu time    0.1576: real time    0.1576
    MIXING:  cpu time    0.0104: real time    0.0142
    --------------------------------------------
      LOOP:  cpu time    3.3606: real time    3.4223

 eigenvalue-minimisations  :  2629
 total energy-change (2. order) : 0.3653718E+02  (-0.4747011E+01)
 number of electron     108.0000020 magnetization      12.9847715
 augmentation part       16.8560496 magnetization      10.4063673

 Broyden mixing:
  rms(total) = 0.55789E+01    rms(broyden)= 0.55789E+01
  rms(prec ) = 0.57440E+01
  weight for this iteration     100.00

 eigenvalues of (default mixing * dielectric matrix)
  average eigenvalue GAMMA=   1.8150
  1.8150

 Free energy of the ion-electron system (eV)
  ---------------------------------------------------
  alpha Z        PSCENC =       387.29199637
  Ewald energy   TEWEN  =     -5258.27864654
  -Hartree energ DENC   =     -2433.92969456
  -exchange      EXHF   =         0.00000000
  -V(xc)+E(xc)   XCENC  =       271.21061946
  PAW double counting   =      7096.74233298    -6963.61658233
  entropy T*S    EENTRO =        -0.02513442
  eigenvalues    EBANDS =      -627.43761327
  atomic energy  EATOM  =      7429.07371459
  Solvation  Ediel_sol  =         0.00000000
  ---------------------------------------------------
  free energy    TOTEN  =       -98.96900772 eV

  energy without entropy =      -98.94387330  energy(sigma->0) =      -98.95644051


--------------------------------------------------------------------------------------------------------




--------------------------------------- Iteration      1(   7)  ---------------------------------------


    POTLOK:  cpu time    0.0756: real time    0.1210
    SETDIJ:  cpu time    2.6602: real time    2.6604
    EDDIAG:  cpu time    0.1729: real time    0.1729
  RMM-DIIS:  cpu time    0.2445: real time    0.2445
    ORTHCH:  cpu time    0.0107: real time    0.0107
       DOS:  cpu time    0.0067: real time    0.0067
    CHARGE:  cpu time    0.1574: real time    0.1574
    MIXING:  cpu time    0.0133: real time    0.0151
    --------------------------------------------
      LOOP:  cpu time    3.3412: real time    3.3886

 eigenvalue-minimisations  :  2599
 total energy-change (2. order) :-0.3066640E+00  (-0.1530635E+01)
 number of electron     108.0000018 magnetization      13.5006408
 augmentation part       17.8971771 magnetization       9.4634079

 Broyden mixing:
  rms(total) = 0.47027E+01    rms(broyden)= 0.47026E+01
  rms(prec ) = 0.48411E+01
  weight for this iteration     100.00

 eigenvalues of (default mixing * dielectric matrix)
  average eigenvalue GAMMA=   1.1447
  1.6362  0.6532

 Free energy of the ion-electron system (eV)
  ---------------------------------------------------
  alpha Z        PSCENC =       387.29199637
  Ewald energy   TEWEN  =     -5258.27864654
  -Hartree energ DENC   =     -2445.06295749
  -exchange      EXHF   =         0.00000000
  -V(xc)+E(xc)   XCENC  =       273.72022844
  PAW double counting   =      8021.17894590    -7893.65832443
  entropy T*S    EENTRO =        -0.03682477
  eigenvalues    EBANDS =      -613.50380378
  atomic energy  EATOM  =      7429.07371459
  Solvation  Ediel_sol  =         0.00000000
  ---------------------------------------------------
  free energy    TOTEN  =       -99.27567172 eV

  energy without entropy =      -99.23884695  energy(sigma->0) =      -99.25725933


--------------------------------------------------------------------------------------------------------




--------------------------------------- Iteration      1(   8)  ---------------------------------------


    POTLOK:  cpu time    0.0747: real time    0.1202
    SETDIJ:  cpu time    2.6586: real time    2.6589
    EDDIAG:  cpu time    0.1704: real time    0.1704
  RMM-DIIS:  cpu time    0.2581: real time    0.2582
    ORTHCH:  cpu time    0.0100: real time    0.0100
       DOS:  cpu time    0.0067: real time    0.0067
    CHARGE:  cpu time    0.1568: real time    0.1571
    MIXING:  cpu time    0.0131: real time    0.0139
    --------------------------------------------
      LOOP:  cpu time    3.3483: real time    3.3954

 eigenvalue-minimisations  :  2659
 total energy-change (2. order) :-0.2304140E+01  (-0.2647525E+00)
 number of electron     108.0000019 magnetization      10.7334219
 augmentation part       18.1321167 magnetization       6.1944685

 Broyden mixing:
  rms(total) = 0.63148E+01    rms(broyden)= 0.63148E+01
  rms(prec ) = 0.65847E+01
  weight for this iteration     100.00

 eigenvalues of (default mixing * dielectric matrix)
  average eigenvalue GAMMA=   1.5336
  2.7965  0.9022  0.9022

 Free energy of the ion-electron system (eV)
  ---------------------------------------------------
  alpha Z        PSCENC =       387.29199637
  Ewald energy   TEWEN  =     -5258.27864654
  -Hartree energ DENC   =     -2447.62781865
  -exchange      EXHF   =         0.00000000
  -V(xc)+E(xc)   XCENC  =       274.37023135
  PAW double counting   =      7714.56470246    -7585.93299252
  entropy T*S    EENTRO =        -0.02999104
  eigenvalues    EBANDS =      -615.01100770
  atomic energy  EATOM  =      7429.07371459
  Solvation  Ediel_sol  =         0.00000000
  ---------------------------------------------------
  free energy    TOTEN  =      -101.57981168 eV

  energy without entropy =     -101.54982064  energy(sigma->0) =     -101.56481616


--------------------------------------------------------------------------------------------------------




--------------------------------------- Iteration      1(   9)  ---------------------------------------


    POTLOK:  cpu time    0.0743: real time    0.1202
    SETDIJ:  cpu time    2.6598: real time    2.6599
    EDDIAG:  cpu time    0.1703: real time    0.1703
  RMM-DIIS:  cpu time    0.2495: real time    0.2496
    ORTHCH:  cpu time    0.0100: real time    0.0100
       DOS:  cpu time    0.0044: real time    0.0044
    CHARGE:  cpu time    0.1569: real time    0.1569
    MIXING:  cpu time    0.0126: real time    0.0131
    --------------------------------------------
      LOOP:  cpu time    3.3378: real time    3.3844

 eigenvalue-minimisations  :  2599
 total energy-change (2. order) : 0.2471434E+01  (-0.2984287E+00)
 number of electron     108.0000017 magnetization       9.8590621
 augmentation part       17.3712761 magnetization       8.4611647

 Broyden mixing:
  rms(total) = 0.23387E+01    rms(broyden)= 0.23384E+01
  rms(prec ) = 0.24495E+01
  weight for this iteration     100.00

 eigenvalues of (default mixing * dielectric matrix)
  average eigenvalue GAMMA=   1.4613
  3.7699  1.0293  0.6524  0.3937

 Free energy of the ion-electron system (eV)
  ---------------------------------------------------
  alpha Z        PSCENC =       387.29199637
  Ewald energy   TEWEN  =     -5258.27864654
  -Hartree energ DENC   =     -2444.02425009
  -exchange      EXHF   =         0.00000000
  -V(xc)+E(xc)   XCENC  =       272.87215917
  PAW double counting   =      9215.03559565    -9092.21408781
  entropy T*S    EENTRO =        -0.02626808
  eigenvalues    EBANDS =      -608.83859083
  atomic energy  EATOM  =      7429.07371459
  Solvation  Ediel_sol  =         0.00000000
  ---------------------------------------------------
  free energy    TOTEN  =       -99.10837757 eV

  energy without entropy =      -99.08210949  energy(sigma->0) =      -99.09524353


--------------------------------------------------------------------------------------------------------




--------------------------------------- Iteration      1(  10)  ---------------------------------------


    POTLOK:  cpu time    0.0748: real time    0.1204
    SETDIJ:  cpu time    2.6594: real time    2.6597
    EDDIAG:  cpu time    0.1706: real time    0.1706
  RMM-DIIS:  cpu time    0.2517: real time    0.2517
    ORTHCH:  cpu time    0.0100: real time    0.0100
       DOS:  cpu time    0.0051: real time    0.0051
    CHARGE:  cpu time    0.1589: real time    0.1589
    MIXING:  cpu time    0.0101: real time    0.0101
    --------------------------------------------
      LOOP:  cpu time    3.3406: real time    3.3865

 eigenvalue-minimisations  :  2603
 total energy-change (2. order) : 0.2793289E-01  (-0.4288352E-01)
 number of electron     108.0000018 magnetization       7.9331880
 augmentation part       17.2376281 magnetization       6.7167583

 Broyden mixing:
  rms(total) = 0.17378E+01    rms(broyden)= 0.17377E+01
  rms(prec ) = 0.18071E+01
  weight for this iteration     100.00

 eigenvalues of (default mixing * dielectric matrix)
  average eigenvalue GAMMA=   1.6988
  5.2492  1.1226  0.7113  0.7113  0.6999

 Free energy of the ion-electron system (eV)
  ---------------------------------------------------
  alpha Z        PSCENC =       387.29199637
  Ewald energy   TEWEN  =     -5258.27864654
  -Hartree energ DENC   =     -2441.45359839
  -exchange      EXHF   =         0.00000000
  -V(xc)+E(xc)   XCENC  =       272.40205863
  PAW double counting   =      9620.53968187    -9499.26597649
  entropy T*S    EENTRO =        -0.02565085
  eigenvalues    EBANDS =      -609.36402386
  atomic energy  EATOM  =      7429.07371459
  Solvation  Ediel_sol  =         0.00000000
  ---------------------------------------------------
  free energy    TOTEN  =       -99.08044467 eV

  energy without entropy =      -99.05479382  energy(sigma->0) =      -99.06761925


--------------------------------------------------------------------------------------------------------




--------------------------------------- Iteration      1(  11)  ---------------------------------------


    POTLOK:  cpu time    0.0772: real time    0.1324
    SETDIJ:  cpu time    2.6586: real time    2.6589
    EDDIAG:  cpu time    0.1713: real time    0.1713
  RMM-DIIS:  cpu time    0.2591: real time    0.2592
    ORTHCH:  cpu time    0.0100: real time    0.0100
       DOS:  cpu time    0.0052: real time    0.0052
    CHARGE:  cpu time    0.1576: real time    0.1576
    MIXING:  cpu time    0.0109: real time    0.0109
    --------------------------------------------
      LOOP:  cpu time    3.3499: real time    3.4054

 eigenvalue-minimisations  :  2620
 total energy-change (2. order) :-0.5526104E+00  (-0.2473816E-01)
 number of electron     108.0000018 magnetization       7.2384031
 augmentation part       17.1916911 magnetization       6.5272327

 Broyden mixing:
  rms(total) = 0.13083E+01    rms(broyden)= 0.13083E+01
  rms(prec ) = 0.14050E+01
  weight for this iteration     100.00

 eigenvalues of (default mixing * dielectric matrix)
  average eigenvalue GAMMA=   1.6307
  5.2261  1.0942  1.0942  1.1254  0.6221  0.6221

 Free energy of the ion-electron system (eV)
  ---------------------------------------------------
  alpha Z        PSCENC =       387.29199637
  Ewald energy   TEWEN  =     -5258.27864654
  -Hartree energ DENC   =     -2437.85893126
  -exchange      EXHF   =         0.00000000
  -V(xc)+E(xc)   XCENC  =       271.94701707
  PAW double counting   =     10339.42942505   -10221.00037587
  entropy T*S    EENTRO =        -0.02135746
  eigenvalues    EBANDS =      -610.21589701
  atomic energy  EATOM  =      7429.07371459
  Solvation  Ediel_sol  =         0.00000000
  ---------------------------------------------------
  free energy    TOTEN  =       -99.63305506 eV

  energy without entropy =      -99.61169760  energy(sigma->0) =      -99.62237633


--------------------------------------------------------------------------------------------------------




--------------------------------------- Iteration      1(  12)  ---------------------------------------


    POTLOK:  cpu time    0.0737: real time    0.1337
    SETDIJ:  cpu time    2.6580: real time    2.6582
    EDDIAG:  cpu time    0.1716: real time    0.1716
  RMM-DIIS:  cpu time    0.2480: real time    0.2480
    ORTHCH:  cpu time    0.0099: real time    0.0099
       DOS:  cpu time    0.0054: real time    0.0054
    CHARGE:  cpu time    0.1569: real time    0.1569
    MIXING:  cpu time    0.0088: real time    0.0088
    --------------------------------------------
      LOOP:  cpu time    3.3324: real time    3.3926

 eigenvalue-minimisations  :  2606
 total energy-change (2. order) :-0.1147260E+00  (-0.2326227E-02)
 number of electron     108.0000018 magnetization       7.3969218
 augmentation part       17.2058586 magnetization       6.8908050

 Broyden mixing:
  rms(total) = 0.12512E+01    rms(broyden)= 0.12512E+01
  rms(prec ) = 0.13288E+01
  weight for this iteration     100.00

 eigenvalues of (default mixing * dielectric matrix)
  average eigenvalue GAMMA=   1.4224
  5.2737  1.0660  1.0660  1.1407  0.6304  0.6304  0.1497

 Free energy of the ion-electron system (eV)
  ---------------------------------------------------
  alpha Z        PSCENC =       387.29199637
  Ewald energy   TEWEN  =     -5258.27864654
  -Hartree energ DENC   =     -2436.50299657
  -exchange      EXHF   =         0.00000000
  -V(xc)+E(xc)   XCENC  =       271.80135420
  PAW double counting   =     10294.21941089   -10175.73888959
  entropy T*S    EENTRO =        -0.01385198
  eigenvalues    EBANDS =      -611.59987239
  atomic energy  EATOM  =      7429.07371459
  Solvation  Ediel_sol  =         0.00000000
  ---------------------------------------------------
  free energy    TOTEN  =       -99.74778102 eV

  energy without entropy =      -99.73392903  energy(sigma->0) =      -99.74085503


--------------------------------------------------------------------------------------------------------




--------------------------------------- Iteration      1(  13)  ---------------------------------------


    POTLOK:  cpu time    0.3350: real time    8.3811
    SETDIJ:  cpu time    2.6588: real time    2.6590
    EDDIAG:  cpu time    0.1704: real time    0.1704
  RMM-DIIS:  cpu time    0.2631: real time    0.2632
    ORTHCH:  cpu time    0.0101: real time    0.0101
       DOS:  cpu time    0.0043: real time    0.0043
    CHARGE:  cpu time    0.1574: real time    0.1574
    MIXING:  cpu time    0.0090: real time    0.0090
    --------------------------------------------
      LOOP:  cpu time    3.6081: real time   11.6544

 eigenvalue-minimisations  :  2655
 total energy-change (2. order) : 0.8776564E-03  (-0.7437698E-03)
 number of electron     108.0000018 magnetization       7.6876112
 augmentation part       17.1901758 magnetization       7.1367154

 Broyden mixing:
  rms(total) = 0.12958E+01    rms(broyden)= 0.12958E+01
  rms(prec ) = 0.13827E+01
  weight for this iteration     100.00

 eigenvalues of (default mixing * dielectric matrix)
  average eigenvalue GAMMA=   2.2275
  5.4845  3.9250  3.9250  1.1577  0.9767  0.9767  0.6874  0.6874

 Free energy of the ion-electron system (eV)
  ---------------------------------------------------
  alpha Z        PSCENC =       387.29199637
  Ewald energy   TEWEN  =     -5258.27864654
  -Hartree energ DENC   =     -2436.60778029
  -exchange      EXHF   =         0.00000000
  -V(xc)+E(xc)   XCENC  =       271.80189839
  PAW double counting   =     10364.23903711   -10245.97222703
  entropy T*S    EENTRO =        -0.01582605
  eigenvalues    EBANDS =      -611.27906990
  atomic energy  EATOM  =      7429.07371459
  Solvation  Ediel_sol  =         0.00000000
  ---------------------------------------------------
  free energy    TOTEN  =       -99.74690336 eV

  energy without entropy =      -99.73107731  energy(sigma->0) =      -99.73899033


--------------------------------------------------------------------------------------------------------




--------------------------------------- Iteration      1(  14)  ---------------------------------------


    POTLOK:  cpu time    0.0742: real time    0.1218
    SETDIJ:  cpu time    2.6577: real time    2.6579
    EDDIAG:  cpu time    0.1714: real time    0.1714
  RMM-DIIS:  cpu time    0.2293: real time    1.2834
    ORTHCH:  cpu time    0.0102: real time    0.0102
       DOS:  cpu time    0.0046: real time    0.0046
    CHARGE:  cpu time    0.1566: real time    0.1566
    MIXING:  cpu time    0.0092: real time    0.0091
    --------------------------------------------
      LOOP:  cpu time    3.3130: real time    4.4151

 eigenvalue-minimisations  :  2592
 total energy-change (2. order) : 0.1265115E+00  (-0.3228953E-02)
 number of electron     108.0000018 magnetization       6.5450950
 augmentation part       17.1850528 magnetization       5.8762751

 Broyden mixing:
  rms(total) = 0.12812E+01    rms(broyden)= 0.12812E+01
  rms(prec ) = 0.13522E+01
  weight for this iteration     100.00

 eigenvalues of (default mixing * dielectric matrix)
  average eigenvalue GAMMA=   2.5737
  6.3585  6.3585  5.3501  1.1173  1.1173  0.9145  0.6832  0.6832  0.5813

 Free energy of the ion-electron system (eV)
  ---------------------------------------------------
  alpha Z        PSCENC =       387.29199637
  Ewald energy   TEWEN  =     -5258.27864654
  -Hartree energ DENC   =     -2436.00141874
  -exchange      EXHF   =         0.00000000
  -V(xc)+E(xc)   XCENC  =       271.79576771
  PAW double counting   =     10490.92194145   -10373.03264342
  entropy T*S    EENTRO =        -0.02221288
  eigenvalues    EBANDS =      -611.36889040
  atomic energy  EATOM  =      7429.07371459
  Solvation  Ediel_sol  =         0.00000000
  ---------------------------------------------------
  free energy    TOTEN  =       -99.62039187 eV

  energy without entropy =      -99.59817898  energy(sigma->0) =      -99.60928543


--------------------------------------------------------------------------------------------------------




--------------------------------------- Iteration      1(  15)  ---------------------------------------


    POTLOK:  cpu time    0.0756: real time    0.1220
    SETDIJ:  cpu time    2.6576: real time    2.6579
    EDDIAG:  cpu time    0.1702: real time    0.1702
  RMM-DIIS:  cpu time    0.2507: real time    0.2506
    ORTHCH:  cpu time    0.0101: real time    0.0101
       DOS:  cpu time    0.0045: real time    0.0045
    CHARGE:  cpu time    0.1564: real time    0.1565
    MIXING:  cpu time    0.0099: real time    0.0099
    --------------------------------------------
      LOOP:  cpu time    3.3350: real time    3.3817

 eigenvalue-minimisations  :  2602
 total energy-change (2. order) :-0.1604596E+00  (-0.6978859E-02)
 number of electron     108.0000018 magnetization      -0.8648871
 augmentation part       17.2402672 magnetization      -1.4202022

 Broyden mixing:
  rms(total) = 0.11779E+01    rms(broyden)= 0.11779E+01
  rms(prec ) = 0.12145E+01
  weight for this iteration     100.00

 eigenvalues of (default mixing * dielectric matrix)
  average eigenvalue GAMMA=   2.8837
 11.0085  4.8690  3.6359  3.6359  1.2305  1.2305  0.6829  0.6829  1.0097  0.8514

 Free energy of the ion-electron system (eV)
  ---------------------------------------------------
  alpha Z        PSCENC =       387.29199637
  Ewald energy   TEWEN  =     -5258.27864654
  -Hartree energ DENC   =     -2434.57479636
  -exchange      EXHF   =         0.00000000
  -V(xc)+E(xc)   XCENC  =       271.65870364
  PAW double counting   =     10354.43088426   -10236.22004723
  entropy T*S    EENTRO =        -0.01724197
  eigenvalues    EBANDS =      -613.14541820
  atomic energy  EATOM  =      7429.07371459
  Solvation  Ediel_sol  =         0.00000000
  ---------------------------------------------------
  free energy    TOTEN  =       -99.78085142 eV

  energy without entropy =      -99.76360946  energy(sigma->0) =      -99.77223044


--------------------------------------------------------------------------------------------------------




--------------------------------------- Iteration      1(  16)  ---------------------------------------


    POTLOK:  cpu time    0.1204: real time    0.1212
    SETDIJ:  cpu time    2.6569: real time    2.6571
    EDDIAG:  cpu time    0.1716: real time    0.1716
  RMM-DIIS:  cpu time    0.2481: real time    0.2483
    ORTHCH:  cpu time    0.0100: real time    0.0100
       DOS:  cpu time    0.0065: real time    0.0065
    CHARGE:  cpu time    0.1573: real time    0.1573
    MIXING:  cpu time    0.0158: real time    0.0205
    --------------------------------------------
      LOOP:  cpu time    3.3865: real time    3.3925

 eigenvalue-minimisations  :  2594
 total energy-change (2. order) :-0.5804421E+00  (-0.6515949E-01)
 number of electron     108.0000019 magnetization      -0.9298767
 augmentation part       17.2647108 magnetization      -0.6563215

 Broyden mixing:
  rms(total) = 0.70951E+00    rms(broyden)= 0.70946E+00
  rms(prec ) = 0.71595E+00
  weight for this iteration     100.00

 eigenvalues of (default mixing * dielectric matrix)
  average eigenvalue GAMMA=   2.6250
 11.0214  4.8529  3.6401  3.6401  1.2301  1.2301  1.0104  0.6828  0.6828  0.8511
  0.0334

 Free energy of the ion-electron system (eV)
  ---------------------------------------------------
  alpha Z        PSCENC =       387.29199637
  Ewald energy   TEWEN  =     -5258.27864654
  -Hartree energ DENC   =     -2430.26107720
  -exchange      EXHF   =         0.00000000
  -V(xc)+E(xc)   XCENC  =       271.06806053
  PAW double counting   =     10002.72466447    -9884.11085333
  entropy T*S    EENTRO =        -0.02561299
  eigenvalues    EBANDS =      -617.84353941
  atomic energy  EATOM  =      7429.07371459
  Solvation  Ediel_sol  =         0.00000000
  ---------------------------------------------------
  free energy    TOTEN  =      -100.36129351 eV

  energy without entropy =     -100.33568052  energy(sigma->0) =     -100.34848702


--------------------------------------------------------------------------------------------------------




--------------------------------------- Iteration      1(  17)  ---------------------------------------


    POTLOK:  cpu time    0.0758: real time    0.1210
    SETDIJ:  cpu time    2.6577: real time    2.6579
    EDDIAG:  cpu time    0.1700: real time    0.1700
  RMM-DIIS:  cpu time    0.2532: real time    0.2532
    ORTHCH:  cpu time    0.0100: real time    0.0100
       DOS:  cpu time    0.0046: real time    0.0046
    CHARGE:  cpu time    0.1565: real time    0.1565
    MIXING:  cpu time    0.0139: real time    0.0143
    --------------------------------------------
      LOOP:  cpu time    3.3417: real time    3.3875

 eigenvalue-minimisations  :  2629
 total energy-change (2. order) :-0.3382582E-02  (-0.2426262E-02)
 number of electron     108.0000019 magnetization      -0.6591511
 augmentation part       17.2790493 magnetization      -0.3493350

 Broyden mixing:
  rms(total) = 0.72556E+00    rms(broyden)= 0.72555E+00
  rms(prec ) = 0.73248E+00
  weight for this iteration     100.00

 eigenvalues of (default mixing * dielectric matrix)
  average eigenvalue GAMMA=   2.4028
 10.6919  4.8240  3.6672  3.6672  1.2337  1.2337  1.0057  0.8528  0.6829  0.6829
  0.1458  0.1458

 Free energy of the ion-electron system (eV)
  ---------------------------------------------------
  alpha Z        PSCENC =       387.29199637
  Ewald energy   TEWEN  =     -5258.27864654
  -Hartree energ DENC   =     -2430.14553264
  -exchange      EXHF   =         0.00000000
  -V(xc)+E(xc)   XCENC  =       271.06584738
  PAW double counting   =      9995.92662130    -9877.29663143
  entropy T*S    EENTRO =        -0.02470825
  eigenvalues    EBANDS =      -617.97733688
  atomic energy  EATOM  =      7429.07371459
  Solvation  Ediel_sol  =         0.00000000
  ---------------------------------------------------
  free energy    TOTEN  =      -100.36467609 eV

  energy without entropy =     -100.33996784  energy(sigma->0) =     -100.35232197


--------------------------------------------------------------------------------------------------------




--------------------------------------- Iteration      1(  18)  ---------------------------------------


    POTLOK:  cpu time    0.0765: real time    0.1218
    SETDIJ:  cpu time    2.6574: real time    2.6575
    EDDIAG:  cpu time    0.1694: real time    0.1694
  RMM-DIIS:  cpu time    0.2573: real time    0.2574
    ORTHCH:  cpu time    0.0100: real time    0.0100
       DOS:  cpu time    0.0059: real time    0.0059
    CHARGE:  cpu time    0.1557: real time    0.1557
    MIXING:  cpu time    0.0140: real time    0.0145
    --------------------------------------------
      LOOP:  cpu time    3.3463: real time    3.3924

 eigenvalue-minimisations  :  2649
 total energy-change (2. order) :-0.2343011E-02  (-0.2200064E-03)
 number of electron     108.0000019 magnetization      -0.2610304
 augmentation part       17.2726284 magnetization      -0.0687449

 Broyden mixing:
  rms(total) = 0.70656E+00    rms(broyden)= 0.70656E+00
  rms(prec ) = 0.71389E+00
  weight for this iteration     100.00

 eigenvalues of (default mixing * dielectric matrix)
  average eigenvalue GAMMA=   2.2496
 10.4689  4.8431  3.6409  3.6409  1.2416  1.2416  0.9839  0.8596  0.6830  0.6830
  0.3603  0.3603  0.2376

 Free energy of the ion-electron system (eV)
  ---------------------------------------------------
  alpha Z        PSCENC =       387.29199637
  Ewald energy   TEWEN  =     -5258.27864654
  -Hartree energ DENC   =     -2430.12593532
  -exchange      EXHF   =         0.00000000
  -V(xc)+E(xc)   XCENC  =       271.06010516
  PAW double counting   =     10002.51593539    -9883.88523813
  entropy T*S    EENTRO =        -0.02664333
  eigenvalues    EBANDS =      -617.99230729
  atomic energy  EATOM  =      7429.07371459
  Solvation  Ediel_sol  =         0.00000000
  ---------------------------------------------------
  free energy    TOTEN  =      -100.36701910 eV

  energy without entropy =     -100.34037577  energy(sigma->0) =     -100.35369744


--------------------------------------------------------------------------------------------------------




--------------------------------------- Iteration      1(  19)  ---------------------------------------


    POTLOK:  cpu time    0.0791: real time    0.1245
    SETDIJ:  cpu time    2.6557: real time    2.6561
    EDDIAG:  cpu time    0.1695: real time    0.1695
  RMM-DIIS:  cpu time    0.2481: real time    0.2481
    ORTHCH:  cpu time    0.0099: real time    0.0099
       DOS:  cpu time    0.0073: real time    0.0073
    CHARGE:  cpu time    0.1572: real time    0.1572
    MIXING:  cpu time    0.0140: real time    0.0159
    --------------------------------------------
      LOOP:  cpu time    3.3408: real time    3.3886

 eigenvalue-minimisations  :  2592
 total energy-change (2. order) :-0.2659888E-03  (-0.4812194E-03)
 number of electron     108.0000019 magnetization      -0.4069623
 augmentation part       17.2480345 magnetization      -0.4545436

 Broyden mixing:
  rms(total) = 0.62086E+00    rms(broyden)= 0.62086E+00
  rms(prec ) = 0.63071E+00
  weight for this iteration     100.00

 eigenvalues of (default mixing * dielectric matrix)
  average eigenvalue GAMMA=   2.2077
 11.1368  4.8669  3.3347  3.3347  1.2551  1.2551  0.8946  0.8946  0.6833  0.6833
  0.6526  0.6526  0.6316  0.6316

 Free energy of the ion-electron system (eV)
  ---------------------------------------------------
  alpha Z        PSCENC =       387.29199637
  Ewald energy   TEWEN  =     -5258.27864654
  -Hartree energ DENC   =     -2430.23014342
  -exchange      EXHF   =         0.00000000
  -V(xc)+E(xc)   XCENC  =       271.04043209
  PAW double counting   =     10031.19597844    -9912.63635029
  entropy T*S    EENTRO =        -0.02648280
  eigenvalues    EBANDS =      -617.79778352
  atomic energy  EATOM  =      7429.07371459
  Solvation  Ediel_sol  =         0.00000000
  ---------------------------------------------------
  free energy    TOTEN  =      -100.36728509 eV

  energy without entropy =     -100.34080229  energy(sigma->0) =     -100.35404369


--------------------------------------------------------------------------------------------------------




--------------------------------------- Iteration      1(  20)  ---------------------------------------


    POTLOK:  cpu time    0.0884: real time    0.1345
    SETDIJ:  cpu time    2.6582: real time    2.6583
    EDDIAG:  cpu time    0.1683: real time    0.1683
  RMM-DIIS:  cpu time    0.2505: real time    0.2505
    ORTHCH:  cpu time    0.0119: real time    0.0119
       DOS:  cpu time    0.0055: real time    0.0055
    CHARGE:  cpu time    0.1592: real time    0.1594
    MIXING:  cpu time    0.0145: real time    0.0230
    --------------------------------------------
      LOOP:  cpu time    3.3566: real time    3.4115

 eigenvalue-minimisations  :  2594
 total energy-change (2. order) : 0.3440125E-03  (-0.1685885E-03)
 number of electron     108.0000019 magnetization      -0.2289029
 augmentation part       17.2416233 magnetization      -0.2146278

 Broyden mixing:
  rms(total) = 0.61129E+00    rms(broyden)= 0.61129E+00
  rms(prec ) = 0.62161E+00
  weight for this iteration     100.00

 eigenvalues of (default mixing * dielectric matrix)
  average eigenvalue GAMMA=   2.1126
 11.2034  4.9032  2.6339  2.6339  0.8275  0.8275  1.2336  1.2336  1.2742  1.2742
  0.8942  0.8942  0.6831  0.6831  0.4903

 Free energy of the ion-electron system (eV)
  ---------------------------------------------------
  alpha Z        PSCENC =       387.29199637
  Ewald energy   TEWEN  =     -5258.27864654
  -Hartree energ DENC   =     -2430.87513402
  -exchange      EXHF   =         0.00000000
  -V(xc)+E(xc)   XCENC  =       271.07003414
  PAW double counting   =     10041.24918569    -9922.72559478
  entropy T*S    EENTRO =        -0.02664315
  eigenvalues    EBANDS =      -617.14585337
  atomic energy  EATOM  =      7429.07371459
  Solvation  Ediel_sol  =         0.00000000
  ---------------------------------------------------
  free energy    TOTEN  =      -100.36694108 eV

  energy without entropy =     -100.34029793  energy(sigma->0) =     -100.35361950


--------------------------------------------------------------------------------------------------------




--------------------------------------- Iteration      1(  21)  ---------------------------------------


    POTLOK:  cpu time    0.0769: real time    0.1244
    SETDIJ:  cpu time    2.6583: real time    2.6585
    EDDIAG:  cpu time    0.1694: real time    0.1694
  RMM-DIIS:  cpu time    0.2498: real time    0.2499
    ORTHCH:  cpu time    0.0100: real time    0.0100
       DOS:  cpu time    0.0052: real time    0.0052
    CHARGE:  cpu time    0.1588: real time    0.1588
    MIXING:  cpu time    0.0153: real time    0.0174
    --------------------------------------------
      LOOP:  cpu time    3.3437: real time    3.3935

 eigenvalue-minimisations  :  2592
 total energy-change (2. order) :-0.3727717E-02  (-0.4011790E-03)
 number of electron     108.0000019 magnetization       0.0585331
 augmentation part       17.2193578 magnetization      -0.0379846

 Broyden mixing:
  rms(total) = 0.54704E+00    rms(broyden)= 0.54704E+00
  rms(prec ) = 0.56142E+00
  weight for this iteration     100.00

 eigenvalues of (default mixing * dielectric matrix)
  average eigenvalue GAMMA=   2.3108
 11.4113  4.9899  2.9991  2.9991  3.3415  2.3001  1.2998  1.2998  1.0309  1.0309
  0.8441  0.6829  0.6829  0.7425  0.7425  0.5748

 Free energy of the ion-electron system (eV)
  ---------------------------------------------------
  alpha Z        PSCENC =       387.29199637
  Ewald energy   TEWEN  =     -5258.27864654
  -Hartree energ DENC   =     -2431.96418574
  -exchange      EXHF   =         0.00000000
  -V(xc)+E(xc)   XCENC  =       271.11380022
  PAW double counting   =     10066.93275625    -9948.47400497
  entropy T*S    EENTRO =        -0.02422252
  eigenvalues    EBANDS =      -616.04187646
  atomic energy  EATOM  =      7429.07371459
  Solvation  Ediel_sol  =         0.00000000
  ---------------------------------------------------
  free energy    TOTEN  =      -100.37066880 eV

  energy without entropy =     -100.34644628  energy(sigma->0) =     -100.35855754


--------------------------------------------------------------------------------------------------------




--------------------------------------- Iteration      1(  22)  ---------------------------------------


    POTLOK:  cpu time    0.0756: real time    0.1212
    SETDIJ:  cpu time    2.6624: real time    2.6625
    EDDIAG:  cpu time    0.1689: real time    0.1689
  RMM-DIIS:  cpu time    0.2462: real time    0.2462
    ORTHCH:  cpu time    0.0099: real time    0.0099
       DOS:  cpu time    0.0042: real time    0.0042
    CHARGE:  cpu time    0.1581: real time    0.1581
    MIXING:  cpu time    0.0158: real time    0.0166
    --------------------------------------------
      LOOP:  cpu time    3.3410: real time    3.3876

 eigenvalue-minimisations  :  2593
 total energy-change (2. order) :-0.3516179E-03  (-0.6025705E-03)
 number of electron     108.0000019 magnetization       0.0320584
 augmentation part       17.2313517 magnetization      -0.2148748

 Broyden mixing:
  rms(total) = 0.45716E+00    rms(broyden)= 0.45716E+00
  rms(prec ) = 0.46743E+00
  weight for this iteration     100.00

 eigenvalues of (default mixing * dielectric matrix)
  average eigenvalue GAMMA=   2.2151
 11.0314  5.4260  3.0009  3.0009  3.5649  2.0191  0.7379  0.7379  1.4202  0.6829
  0.6829  1.2652  1.0532  1.0532  0.8427  0.6137  0.5230

 Free energy of the ion-electron system (eV)
  ---------------------------------------------------
  alpha Z        PSCENC =       387.29199637
  Ewald energy   TEWEN  =     -5258.27864654
  -Hartree energ DENC   =     -2431.91970734
  -exchange      EXHF   =         0.00000000
  -V(xc)+E(xc)   XCENC  =       271.14894929
  PAW double counting   =     10095.38341100    -9977.04827184
  entropy T*S    EENTRO =        -0.02216535
  eigenvalues    EBANDS =      -616.00030058
  atomic energy  EATOM  =      7429.07371459
  Solvation  Ediel_sol  =         0.00000000
  ---------------------------------------------------
  free energy    TOTEN  =      -100.37102042 eV

  energy without entropy =     -100.34885507  energy(sigma->0) =     -100.35993774


--------------------------------------------------------------------------------------------------------




--------------------------------------- Iteration      1(  23)  ---------------------------------------


    POTLOK:  cpu time    0.0784: real time    0.1217
    SETDIJ:  cpu time    2.6573: real time    2.6575
    EDDIAG:  cpu time    0.1686: real time    0.1686
  RMM-DIIS:  cpu time    0.2478: real time    0.2478
    ORTHCH:  cpu time    0.0099: real time    0.0100
       DOS:  cpu time    0.0044: real time    0.0044
    CHARGE:  cpu time    0.1561: real time    0.1561
    MIXING:  cpu time    0.0105: real time    0.0105
    --------------------------------------------
      LOOP:  cpu time    3.3330: real time    3.3765

 eigenvalue-minimisations  :  2599
 total energy-change (2. order) : 0.4916806E-02  (-0.3211192E-03)
 number of electron     108.0000019 magnetization       0.0381335
 augmentation part       17.2503900 magnetization      -0.1853320

 Broyden mixing:
  rms(total) = 0.42840E+00    rms(broyden)= 0.42840E+00
  rms(prec ) = 0.43310E+00
  weight for this iteration     100.00

 eigenvalues of (default mixing * dielectric matrix)
  average eigenvalue GAMMA=   2.1438
 11.0304  5.4907  3.0330  3.0330  3.2647  2.5245  0.7402  0.7402  1.3641  0.6830
  0.6830  1.2134  1.1392  1.0140  0.8405  0.7642  0.5666  0.4635

 Free energy of the ion-electron system (eV)
  ---------------------------------------------------
  alpha Z        PSCENC =       387.29199637
  Ewald energy   TEWEN  =     -5258.27864654
  -Hartree energ DENC   =     -2431.54653652
  -exchange      EXHF   =         0.00000000
  -V(xc)+E(xc)   XCENC  =       271.14838804
  PAW double counting   =     10062.37696861    -9943.94211006
  entropy T*S    EENTRO =        -0.02498123
  eigenvalues    EBANDS =      -616.46489688
  atomic energy  EATOM  =      7429.07371459
  Solvation  Ediel_sol  =         0.00000000
  ---------------------------------------------------
  free energy    TOTEN  =      -100.36610361 eV

  energy without entropy =     -100.34112238  energy(sigma->0) =     -100.35361300


--------------------------------------------------------------------------------------------------------




--------------------------------------- Iteration      1(  24)  ---------------------------------------


    POTLOK:  cpu time    0.0746: real time    0.1209
    SETDIJ:  cpu time    2.6573: real time    2.6573
    EDDIAG:  cpu time    0.1685: real time    0.1686
  RMM-DIIS:  cpu time    0.2539: real time    0.2539
    ORTHCH:  cpu time    0.0099: real time    0.0099
       DOS:  cpu time    0.0123: real time    0.0123
    CHARGE:  cpu time    0.1702: real time    0.1702
    MIXING:  cpu time    0.0105: real time    0.0105
    --------------------------------------------
      LOOP:  cpu time    3.3572: real time    3.4036

 eigenvalue-minimisations  :  2618
 total energy-change (2. order) : 0.4697994E-04  (-0.1713502E-04)
 number of electron     108.0000019 magnetization       0.6750091
 augmentation part       17.2523824 magnetization       0.4521906

 Broyden mixing:
  rms(total) = 0.42778E+00    rms(broyden)= 0.42778E+00
  rms(prec ) = 0.43209E+00
  weight for this iteration     100.00

 eigenvalues of (default mixing * dielectric matrix)
  average eigenvalue GAMMA=   2.4734
 11.2833  4.1230  4.1230  4.9669  4.9669  3.3025  3.3025  0.7404  0.7404  0.6830
  0.6830  1.2071  1.2071  1.0896  1.0896  1.1328  0.9316  0.8514  0.5714

 Free energy of the ion-electron system (eV)
  ---------------------------------------------------
  alpha Z        PSCENC =       387.29199637
  Ewald energy   TEWEN  =     -5258.27864654
  -Hartree energ DENC   =     -2431.44605886
  -exchange      EXHF   =         0.00000000
  -V(xc)+E(xc)   XCENC  =       271.14566581
  PAW double counting   =     10060.92033283    -9942.48466333
  entropy T*S    EENTRO =        -0.02510543
  eigenvalues    EBANDS =      -616.56329207
  atomic energy  EATOM  =      7429.07371459
  Solvation  Ediel_sol  =         0.00000000
  ---------------------------------------------------
  free energy    TOTEN  =      -100.36605663 eV

  energy without entropy =     -100.34095120  energy(sigma->0) =     -100.35350391


--------------------------------------------------------------------------------------------------------




--------------------------------------- Iteration      1(  25)  ---------------------------------------


    POTLOK:  cpu time    5.2580: real time    5.3032
    SETDIJ:  cpu time    2.6577: real time    2.6579
    EDDIAG:  cpu time    0.1691: real time    0.1691
  RMM-DIIS:  cpu time    0.2471: real time    0.2471
    ORTHCH:  cpu time    0.0100: real time    0.0100
       DOS:  cpu time    0.0044: real time    0.0043
    CHARGE:  cpu time    0.1571: real time    0.1572
    MIXING:  cpu time    0.0168: real time    0.0170
    --------------------------------------------
      LOOP:  cpu time    8.5201: real time    8.5659

 eigenvalue-minimisations  :  2592
 total energy-change (2. order) :-0.1116882E-01  (-0.1212566E-02)
 number of electron     108.0000019 magnetization       0.7033738
 augmentation part       17.2354918 magnetization       0.2145443

 Broyden mixing:
  rms(total) = 0.34740E+00    rms(broyden)= 0.34740E+00
  rms(prec ) = 0.35402E+00
  weight for this iteration     100.00

 eigenvalues of (default mixing * dielectric matrix)
  average eigenvalue GAMMA=   2.5118
 12.7135  5.5557  5.5557  4.1883  4.1883  3.2425  3.2425  0.7405  0.7405  0.6830
  0.6830  1.2265  1.2265  1.1732  1.1732  1.0093  1.0093  0.8475  0.5710  0.4658

 Free energy of the ion-electron system (eV)
  ---------------------------------------------------
  alpha Z        PSCENC =       387.29199637
  Ewald energy   TEWEN  =     -5258.27864654
  -Hartree energ DENC   =     -2433.86340495
  -exchange      EXHF   =         0.00000000
  -V(xc)+E(xc)   XCENC  =       271.27668133
[...]

 k-point     7 :       0.0000    0.0000    0.4000
  band No.  band energies     occupation 
      1     -17.3956      1.00000
      2     -17.0502      1.00000
      3     -17.0502      1.00000
      4     -16.7152      1.00000
      5     -16.5877      1.00000
      6     -16.5588      1.00000
      7     -16.5588      1.00000
      8     -16.5555      1.00000
      9     -15.8544      1.00000
     10     -15.8544      1.00000
     11     -15.8173      1.00000
     12     -15.8173      1.00000
     13      -7.6022      1.00000
     14      -7.5889      1.00000
     15      -7.5889      1.00000
     16      -7.4810      1.00000
     17      -7.4420      1.00000
     18      -7.0978      1.00000
     19      -7.0978      1.00000
     20      -6.7465      1.00000
     21      -5.4121      1.00000
     22      -5.4121      1.00000
     23      -5.3451      1.00000
     24      -5.3451      1.00000
     25      -5.1205      1.00000
     26      -4.0667      1.00000
     27      -4.0667      1.00000
     28      -4.0238      1.00000
     29      -4.0238      1.00000
     30      -3.6786      1.00000
     31      -3.6786      1.00000
     32      -2.5434      1.00000
     33      -2.5434      1.00000
     34      -2.1893      1.00000
     35      -2.1893      1.00000
     36      -1.7833      1.00000
     37      -1.3499      1.00000
     38      -0.8064      1.00000
     39      -0.8064      1.00000
     40      -0.7733      1.00000
     41      -0.7733      1.00000
     42      -0.3413      1.00000
     43      -0.0071      1.00000
     44      -0.0071      1.00000
     45       0.6861      1.00000
     46       0.6861      1.00000
     47       0.6862      1.00000
     48       0.6862      1.00000
     49       1.1112      1.00000
     50       1.8188      0.23883
     51       2.0641      0.00000
     52       2.0641      0.00000
     53       2.0712      0.00000
     54       2.0712      0.00000
     55       2.5511      0.00000
     56       2.5511      0.00000
     57       2.8098      0.00000
     58       2.8098      0.00000
     59       2.8449      0.00000
     60       2.8449      0.00000
     61       3.0763      0.00000
     62       3.4641      0.00000
     63       3.4641      0.00000
     64       5.2952      0.00000
     65       8.8055      0.00000
     66       8.9052      0.00000
     67       8.9052      0.00000
     68       9.1656      0.00000
     69      10.3615      0.00000
     70      10.6443      0.00000
     71      11.7473      0.00000
     72      11.7473      0.00000

 k-point     8 :       0.5000    0.0000    0.4000
  band No.  band energies     occupation 
      1     -17.1602      1.00000
      2     -17.1602      1.00000
      3     -16.6259      1.00000
      4     -16.6259      1.00000
      5     -16.5785      1.00000
      6     -16.5785      1.00000
      7     -16.4315      1.00000
      8     -16.4315      1.00000
      9     -16.4058      1.00000
     10     -16.4058      1.00000
     11     -15.8359      1.00000
     12     -15.8359      1.00000
     13      -7.5832      1.00000
     14      -7.5832      1.00000
     15      -7.4817      1.00000
     16      -7.4817      1.00000
     17      -7.1209      1.00000
     18      -7.1209      1.00000
     19      -5.3791      1.00000
     20      -5.3791      1.00000
     21      -5.2515      1.00000
     22      -5.2515      1.00000
     23      -5.0858      1.00000
     24      -5.0858      1.00000
     25      -4.8349      1.00000
     26      -4.8349      1.00000
     27      -4.7676      1.00000
     28      -4.7676      1.00000
     29      -4.5507      1.00000
     30      -4.5507      1.00000
     31      -4.0469      1.00000
     32      -4.0469      1.00000
     33      -3.1568      1.00000
     34      -3.1568      1.00000
     35      -2.1469      1.00000
     36      -2.1469      1.00000
     37      -0.9187      1.00000
     38      -0.9187      1.00000
     39      -0.5551      1.00000
     40      -0.5551      1.00000
     41       0.1942      1.00000
     42       0.1942      1.00000
     43       0.2699      1.00000
     44       0.2699      1.00000
     45       0.4049      1.00000
     46       0.4049      1.00000
     47       0.7035      1.00000
     48       0.7035      1.00000
     49       1.4482      1.00000
     50       1.4482      1.00000
     51       2.0699      0.00000
     52       2.0699      0.00000
     53       2.2639      0.00000
     54       2.2639      0.00000
     55       2.2764      0.00000
     56       2.2764      0.00000
     57       2.6585      0.00000
     58       2.6585      0.00000
     59       2.8344      0.00000
     60       2.8344      0.00000
     61       3.1960      0.00000
     62       3.1960      0.00000
     63       6.7088      0.00000
     64       6.7088      0.00000
     65       7.1737      0.00000
     66       7.1737      0.00000
     67       8.9066      0.00000
     68       8.9066      0.00000
     69      10.8624      0.00000
     70      10.8624      0.00000
     71      11.1854      0.00000
     72      11.1854      0.00000

 k-point     9 :       0.5000    0.5000    0.4000
  band No.  band energies     occupation 
      1     -16.7662      1.00000
      2     -16.7662      1.00000
      3     -16.7662      1.00000
      4     -16.7662      1.00000
      5     -16.5036      1.00000
      6     -16.5036      1.00000
      7     -16.5036      1.00000
      8     -16.5036      1.00000
      9     -16.3141      1.00000
     10     -16.3141      1.00000
     11     -16.3141      1.00000
     12     -16.3141      1.00000
     13      -7.4819      1.00000
     14      -7.4819      1.00000
     15      -7.4819      1.00000
     16      -7.4819      1.00000
     17      -5.4995      1.00000
     18      -5.4995      1.00000
     19      -5.4995      1.00000
     20      -5.4995      1.00000
     21      -4.9771      1.00000
     22      -4.9771      1.00000
     23      -4.9771      1.00000
     24      -4.9771      1.00000
     25      -4.7873      1.00000
     26      -4.7873      1.00000
     27      -4.7873      1.00000
     28      -4.7873      1.00000
     29      -4.7451      1.00000
     30      -4.7451      1.00000
     31      -4.7451      1.00000
     32      -4.7451      1.00000
     33      -3.9063      1.00000
     34      -3.9063      1.00000
     35      -3.9063      1.00000
     36      -3.9063      1.00000
     37      -0.0114      1.00000
     38      -0.0114      1.00000
     39      -0.0114      1.00000
     40      -0.0114      1.00000
     41       0.2671      1.00000
     42       0.2671      1.00000
     43       0.2671      1.00000
     44       0.2671      1.00000
     45       0.4027      1.00000
     46       0.4027      1.00000
     47       0.4027      1.00000
     48       0.4027      1.00000
     49       1.7672      0.77346
     50       1.7672      0.77346
     51       1.7672      0.77346
     52       1.7672      0.77346
     53       2.2223      0.00000
     54       2.2223      0.00000
     55       2.2223      0.00000
     56       2.2223      0.00000
     57       2.3372      0.00000
     58       2.3372      0.00000
     59       2.3372      0.00000
     60       2.3372      0.00000
     61       6.0062      0.00000
     62       6.0062      0.00000
     63       6.0062      0.00000
     64       6.0062      0.00000
     65       7.5255      0.00000
     66       7.5255      0.00000
     67       7.5255      0.00000
     68       7.5255      0.00000
     69      11.0565      0.00000
     70      11.0565      0.00000
     71      11.0565      0.00000
     72      11.0565      0.00000


--------------------------------------------------------------------------------------------------------


 soft charge-density along one line, spin component           1
         0         1         2         3         4         5         6         7         8         9
 total charge-density along one line
 
 soft charge-density along one line, spin component           2
         0         1         2         3         4         5         6         7         8         9
 total charge-density along one line
 
 pseudopotential strength for first ion, spin component:           1
 12.835 -15.669  -0.000   0.000  -0.000   0.000  -0.000   0.000
-15.669  19.152   0.000  -0.000   0.000  -0.000   0.000  -0.000
 -0.000   0.000  -9.138  -0.000  -0.000  11.111   0.000   0.000
  0.000  -0.000  -0.000  -9.268  -0.000   0.000  11.283   0.000
 -0.000   0.000  -0.000  -0.000  -9.138   0.000   0.000  11.111
  0.000  -0.000  11.111   0.000   0.000 -13.387  -0.000  -0.000
 -0.000   0.000   0.000  11.283   0.000  -0.000 -13.615  -0.000
  0.000  -0.000   0.000   0.000  11.111  -0.000  -0.000 -13.387
 pseudopotential strength for first ion, spin component:           2
 12.835 -15.669  -0.000   0.000  -0.000   0.000  -0.000   0.000
-15.669  19.151   0.000  -0.000   0.000  -0.000   0.000  -0.000
 -0.000   0.000  -9.136  -0.000  -0.000  11.108   0.000   0.000
  0.000  -0.000  -0.000  -9.270  -0.000   0.000  11.286   0.000
 -0.000   0.000  -0.000  -0.000  -9.136   0.000   0.000  11.108
  0.000  -0.000  11.108   0.000   0.000 -13.383  -0.000  -0.000
 -0.000   0.000   0.000  11.286   0.000  -0.000 -13.619  -0.000
  0.000  -0.000   0.000   0.000  11.108  -0.000  -0.000 -13.383
 total augmentation occupancy for first ion, spin component:           1
  2.488   0.299  -0.000  -0.000  -0.000  -0.000   0.000  -0.000
  0.299   0.070   0.000  -0.000   0.000  -0.000  -0.000  -0.000
 -0.000   0.000   1.891  -0.000   0.000   0.134   0.000   0.000
  0.000   0.000   0.000   2.166   0.000   0.000   0.349   0.000
 -0.000   0.000   0.000  -0.000   1.891   0.000   0.000   0.134
 -0.000  -0.000   0.134  -0.000   0.000   0.018   0.000   0.000
  0.000   0.000  -0.000   0.349  -0.000  -0.000   0.063   0.000
 -0.000  -0.000   0.000  -0.000   0.134   0.000   0.000   0.018
 total augmentation occupancy for first ion, spin component:           2
 -0.001   0.001   0.000  -0.000   0.000   0.000   0.000   0.000
  0.001   0.006   0.000   0.000   0.000  -0.000  -0.000  -0.000
  0.000   0.000  -0.001   0.000   0.000  -0.000   0.000   0.000
  0.000   0.000   0.000  -0.004   0.000  -0.000   0.000   0.000
  0.000   0.000   0.000   0.000  -0.001   0.000   0.000  -0.000
  0.000  -0.000  -0.000   0.000   0.000  -0.000   0.000   0.000
 -0.000   0.000   0.000   0.000   0.000   0.000   0.000   0.000
  0.000  -0.000   0.000   0.000  -0.000   0.000   0.000  -0.000


------------------------ aborting loop because EDIFF is reached ----------------------------------------


 


 total charge     
 
# of ion       s       p       d       tot
------------------------------------------
    1        1.566   3.421   0.000   4.987
    2        1.566   3.421   0.000   4.987
    3        1.566   3.421   0.000   4.987
    4        1.566   3.421   0.000   4.987
    5        1.567   3.542   0.000   5.109
    6        1.567   3.542   0.000   5.109
    7        1.551   3.321   0.000   4.873
    8        1.551   3.321   0.000   4.873
    9        1.567   3.542   0.000   5.109
   10        1.567   3.542   0.000   5.109
   11        1.551   3.321   0.000   4.873
   12        1.551   3.321   0.000   4.873
   13        0.672   1.088   6.628   8.388
   14        0.672   1.088   6.628   8.388
   15        0.672   1.088   6.628   8.388
   16        0.672   1.088   6.628   8.388
--------------------------------------------------
tot         21.423  45.489  26.510  93.422
 


 magnetization (x)
 
# of ion       s       p       d       tot
------------------------------------------
    1        0.004  -0.004   0.000  -0.000
    2        0.004  -0.004   0.000  -0.000
    3        0.004  -0.004   0.000  -0.000
    4        0.004  -0.004   0.000  -0.000
    5        0.004   0.018   0.000   0.021
    6        0.004   0.018   0.000   0.021
    7        0.006   0.017   0.000   0.023
    8        0.006   0.017   0.000   0.023
    9        0.004   0.018   0.000   0.021
   10        0.004   0.018   0.000   0.021
   11        0.006   0.017   0.000   0.023
   12        0.006   0.017   0.000   0.023
   13        0.000  -0.000   0.161   0.161
   14        0.000  -0.000   0.161   0.161
   15        0.000  -0.000   0.161   0.161
   16        0.000  -0.000   0.161   0.161
--------------------------------------------------
tot          0.056   0.120   0.645   0.821
 
    CHARGE:  cpu time    0.1555: real time    0.1555
    FORLOC:  cpu time    0.0064: real time    0.0064
    FORNL :  cpu time    0.2384: real time    0.2384
    STRESS:  cpu time    0.7255: real time    0.7255
    FORCOR:  cpu time    0.0778: real time    0.0778
    FORHAR:  cpu time    0.0112: real time    0.0112
    MIXING:  cpu time    0.0086: real time    0.0086
    OFIELD:  cpu time    0.0001: real time    0.0001

  FORCE on cell =-STRESS in cart. coord.  units (eV):
  Direction    XX          YY          ZZ          XY          YZ          ZX
  --------------------------------------------------------------------------------------
  Alpha Z   387.29200   387.29200   387.29200
  Ewald   -1788.99766 -1788.99766 -1680.30016     0.00000     0.00000    -0.00000
  Hartree   800.41663   800.41663   832.70440    -0.00000    -0.00000    -0.00000
  E(xc)    -521.65332  -521.65332  -521.47130     0.00000     0.00000     0.00000
  Local    -855.33445  -855.33445  -981.12456    -0.00000     0.00000    -0.00000
  n-local  -270.62392  -289.00034  -279.90582     0.00000    -0.00000    -0.00000
  augment   232.57489   232.57489   228.72541     0.00000     0.00000    -0.00000
  Kinetic  2021.86986  2029.09345  2014.07743     0.00000     0.00000    -0.00000
  Fock        0.00000     0.00000     0.00000     0.00000     0.00000     0.00000
  -------------------------------------------------------------------------------------
  Total      -0.03238    -0.03238    -0.00260     0.00000     0.00000    -0.00000
  in kB      -0.23712    -0.23712    -0.01905     0.00000     0.00000    -0.00000
  external pressure =       -0.16 kB  Pullay stress =        0.00 kB


 VOLUME and BASIS-vectors are now :
 -----------------------------------------------------------------------------
  energy-cutoff  :      600.00
  volume of cell :      218.81
      direct lattice vectors                 reciprocal lattice vectors
     7.621550000  0.000000000  0.000000000     0.131206907  0.000000000  0.000000000
     0.000000000  7.621550000  0.000000000     0.000000000  0.131206907  0.000000000
     0.000000000  0.000000000  3.766950000     0.000000000  0.000000000  0.265466757

  length of vectors
     7.621550000  7.621550000  3.766950000     0.131206907  0.131206907  0.265466757


 FORCES acting on ions
    electron-ion (+dipol)            ewald-force                    non-local-force                 convergence-correction
 -----------------------------------------------------------------------------------------------
   -.102E-01 -.102E-01 0.244E-08   0.989E-02 0.989E-02 -.460E-14   0.775E-03 0.775E-03 -.486E-25   -.297E-04 -.297E-04 0.773E-11
   0.102E-01 0.102E-01 -.244E-08   -.989E-02 -.989E-02 -.446E-14   -.775E-03 -.775E-03 0.487E-26   0.297E-04 0.297E-04 0.118E-11
   -.102E-01 0.102E-01 -.268E-11   0.989E-02 -.989E-02 -.521E-14   0.775E-03 -.775E-03 0.745E-27   -.297E-04 0.297E-04 -.133E-11
   0.102E-01 -.102E-01 0.472E-11   -.989E-02 0.989E-02 -.474E-14   -.775E-03 0.775E-03 0.401E-25   0.297E-04 -.297E-04 -.830E-11
   -.459E-01 0.277E-05 -.954E-09   0.554E-01 -.169E-05 0.403E-14   -.708E-02 -.913E-06 -.914E-26   0.126E-03 -.619E-07 -.488E-11
   0.459E-01 -.277E-05 0.956E-09   -.554E-01 0.169E-05 0.358E-14   0.708E-02 0.913E-06 0.310E-26   -.126E-03 0.619E-07 -.426E-11
   0.277E-05 0.459E-01 0.931E-09   -.169E-05 -.554E-01 0.406E-14   -.913E-06 0.708E-02 -.366E-26   -.619E-07 -.126E-03 0.442E-11
   -.277E-05 -.459E-01 -.953E-09   0.169E-05 0.554E-01 0.371E-14   0.913E-06 -.708E-02 -.690E-26   0.619E-07 0.126E-03 0.218E-11
   0.459E-01 0.277E-05 0.954E-09   -.554E-01 -.169E-05 0.430E-14   0.708E-02 -.913E-06 0.802E-26   -.126E-03 -.619E-07 0.301E-11
   -.459E-01 -.277E-05 -.986E-09   0.554E-01 0.169E-05 0.394E-14   -.708E-02 0.913E-06 -.414E-26   0.126E-03 0.619E-07 0.114E-10
   -.277E-05 0.459E-01 0.963E-09   0.169E-05 -.554E-01 0.403E-14   0.913E-06 0.708E-02 -.417E-26   0.619E-07 -.126E-03 -.557E-11
   0.277E-05 -.459E-01 -.957E-09   -.169E-05 0.554E-01 0.436E-14   -.913E-06 -.708E-02 0.158E-25   -.619E-07 0.126E-03 0.720E-12
   -.489E-01 -.489E-01 0.142E-08   0.486E-01 0.486E-01 -.481E-14   0.212E-02 0.212E-02 -.500E-25   -.792E-05 -.792E-05 -.655E-11
   0.489E-01 0.489E-01 -.141E-08   -.486E-01 -.486E-01 -.425E-14   -.212E-02 -.212E-02 0.435E-25   0.792E-05 0.792E-05 0.170E-12
   -.489E-01 0.489E-01 0.728E-12   0.486E-01 -.486E-01 -.451E-14   0.212E-02 -.212E-02 -.258E-25   -.792E-05 0.792E-05 -.508E-12
   0.489E-01 -.489E-01 0.950E-11   -.486E-01 0.486E-01 -.415E-14   -.212E-02 0.212E-02 0.764E-25   0.792E-05 -.792E-05 0.513E-11
 -----------------------------------------------------------------------------------------------
   0.373E-11 0.960E-11 -.191E-10   0.208E-13 -.593E-13 -.472E-14   -.434E-18 0.000E+00 0.401E-25   0.931E-13 -.163E-10 0.455E-11
 
 
 POSITION                                       TOTAL-FORCE (eV/Angst)
 -----------------------------------------------------------------------------------
      5.71624      1.90546      1.88348         0.000464      0.000464     -0.000000
      1.90531      5.71609      1.88348        -0.000464     -0.000464     -0.000000
      1.90546      1.90531      1.88348         0.000464     -0.000464      0.000000
      5.71609      5.71624      1.88348        -0.000464      0.000464     -0.000000
      3.81062      5.71616     -0.00000         0.002493      0.000000     -0.000000
      3.81093      1.90539     -0.00000        -0.002493     -0.000000     -0.000000
      5.71616      3.81093      0.00000         0.000000     -0.002493      0.000000
      1.90539      3.81062     -0.00000        -0.000000      0.002493     -0.000000
      0.00015      1.90539      0.00000        -0.002493      0.000000      0.000000
      7.62140      5.71616      0.00000         0.002493     -0.000000      0.000000
      5.71616      0.00015      0.00000        -0.000000     -0.002493     -0.000000
      1.90539      7.62140     -0.00000         0.000000      0.002493     -0.000000
      5.71624      1.90546     -0.00000         0.001803      0.001803      0.000000
      1.90531      5.71609      0.00000        -0.001803     -0.001803      0.000000
      1.90546      1.90531      0.00000         0.001803     -0.001803      0.000000
      5.71609      5.71624     -0.00000        -0.001803      0.001803      0.000000
 -----------------------------------------------------------------------------------
    total drift:                                0.000000     -0.000000     -0.000000


--------------------------------------------------------------------------------------------------------



  FREE ENERGIE OF THE ION-ELECTRON SYSTEM (eV)
  ---------------------------------------------------
  free  energy   TOTEN  =      -100.37325366 eV

  energy  without entropy=     -100.35529427  energy(sigma->0) =     -100.36427396
 
 d Force =-0.1913090E-06[-0.208E-06,-0.175E-06]  d Energy = 0.8577172E-07-0.277E-06
 d Force =-0.4662515E-05[-0.493E-05,-0.440E-05]  d Ewald  = 0.6848380E-01-0.685E-01


--------------------------------------------------------------------------------------------------------


    POTLOK:  cpu time    2.7286: real time    2.7287


--------------------------------------------------------------------------------------------------------


 stress matrix after NEB project (eV)
     -0.03238      0.00000     -0.00000
      0.00000     -0.03238      0.00000
      0.00000      0.00000     -0.00260
  FORCES: max atom, RMS     0.002549    0.002200
  FORCE total and by dimension    0.008800    0.002493
  Stress total and by dimension    0.045872    0.032384
