 vasp.5.4.4.18Apr17-6-g9f103f2a35 (build Aug 21 2019 12:36:18) complex          
  
 executed on IFC18.0.1.163_CrayMP date 2019.08.31  19:22:50
 running on  330 total cores
 distrk:  each k-point on   66 cores,    5 groups
 distr:  one band on NCORES_PER_BAND=  11 cores,    6 groups


--------------------------------------------------------------------------------------------------------


 INCAR:
 POTCAR:    PAW_PBE O 08Apr2002                   
 POTCAR:    PAW_PBE Ir 06Sep2000                  

 ----------------------------------------------------------------------------- 
|                                                                             |
|           W    W    AA    RRRRR   N    N  II  N    N   GGGG   !!!           |
|           W    W   A  A   R    R  NN   N  II  NN   N  G    G  !!!           |
|           W    W  A    A  R    R  N N  N  II  N N  N  G       !!!           |
|           W WW W  AAAAAA  RRRRR   N  N N  II  N  N N  G  GGG   !            |
|           WW  WW  A    A  R   R   N   NN  II  N   NN  G    G                |
|           W    W  A    A  R    R  N    N  II  N    N   GGGG   !!!           |
|                                                                             |
|      You have enabled k-point parallelism (KPAR>1).                         |
|      This developmental code was originally  written by Paul Kent at ORNL,  |
|      and carefully double checked in Vienna.                                |
|      GW as well as linear response parallelism added by Martijn Marsman     |
|      and Georg Kresse.                                                      |
|      Carefully verify results versus KPAR=1.                                |
|      Report problems to Paul Kent and Vienna.                               |
|                                                                             |
 ----------------------------------------------------------------------------- 

 POTCAR:    PAW_PBE O 08Apr2002                   
   VRHFIN =O: s2p4                                                              
   LEXCH  = PE                                                                  
   EATOM  =   432.3788 eV,   31.7789 Ry                                         
                                                                                
   TITEL  = PAW_PBE O 08Apr2002                                                 
   LULTRA =        F    use ultrasoft PP ?                                      
   IUNSCR =        1    unscreen: 0-lin 1-nonlin 2-no                           
   RPACOR =    1.200    partial core radius                                     
   POMASS =   16.000; ZVAL   =    6.000    mass and valenz                      
   RCORE  =    1.520    outmost cutoff radius                                   
   RWIGS  =    1.550; RWIGS  =    0.820    wigner-seitz radius (au A)           
   ENMAX  =  400.000; ENMIN  =  300.000 eV                                      
   ICORE  =        2    local potential                                         
   LCOR   =        T    correct aug charges                                     
   LPAW   =        T    paw PP                                                  
   EAUG   =  605.392                                                            
   DEXC   =    0.000                                                            
   RMAX   =    1.553    core radius for proj-oper                               
   RAUG   =    1.300    factor for augmentation sphere                          
   RDEP   =    1.550    radius for radial grids                                 
   RDEPT  =    1.329    core radius for aug-charge                              
                                                                                
   Atomic configuration                                                         
    4 entries                                                                   
     n  l   j            E        occ.                                          
     1  0  0.50      -514.6923   2.0000                                         
     2  0  0.50       -23.9615   2.0000                                         
     2  1  0.50        -9.0305   4.0000                                         
     3  2  1.50        -9.5241   0.0000                                         
   Description                                                                  
     l       E           TYP  RCUT    TYP  RCUT                                 
     0    -23.9615318     23  1.200                                             
     0     -9.5240782     23  1.200                                             
     1     -9.0304911     23  1.520                                             
     1      8.1634956     23  1.520                                             
     2     -9.5240782      7  1.500                                             
  local pseudopotential read in
  partial core-charges read in
  partial kinetic energy density read in
  kinetic energy density of atom read in
  atomic valenz-charges read in
  non local Contribution for L=           0  read in
    real space projection operators read in
  non local Contribution for L=           0  read in
    real space projection operators read in
  non local Contribution for L=           1  read in
    real space projection operators read in
  non local Contribution for L=           1  read in
    real space projection operators read in
    PAW grid and wavefunctions read in
 
   number of l-projection  operators is LMAX  =           4
   number of lm-projection operators is LMMAX =           8
 
 POTCAR:    PAW_PBE Ir 06Sep2000                  
   VRHFIN =Ir: s1d8                                                             
   LEXCH  = PE                                                                  
   EATOM  =   560.1833 eV,   41.1723 Ry                                         
                                                                                
   TITEL  = PAW_PBE Ir 06Sep2000                                                
   LULTRA =        F    use ultrasoft PP ?                                      
   IUNSCR =        1    unscreen: 0-lin 1-nonlin 2-no                           
   RPACOR =    2.250    partial core radius                                     
   POMASS =  192.220; ZVAL   =    9.000    mass and valenz                      
   RCORE  =    2.600    outmost cutoff radius                                   
   RWIGS  =    2.690; RWIGS  =    1.423    wigner-seitz radius (au A)           
   ENMAX  =  210.864; ENMIN  =  158.148 eV                                      
   RCLOC  =    1.857    cutoff for local pot                                    
   LCOR   =        T    correct aug charges                                     
   LPAW   =        T    paw PP                                                  
   EAUG   =  318.962                                                            
   DEXC   =    0.000                                                            
   RMAX   =    2.667    core radius for proj-oper                               
   RAUG   =    1.300    factor for augmentation sphere                          
   RDEP   =    2.748    radius for radial grids                                 
   RDEPT  =    2.300    core radius for aug-charge                              
                                                                                
   Atomic configuration                                                         
   16 entries                                                                   
     n  l   j            E        occ.                                          
     1  0  0.50    -76100.0449   2.0000                                         
     2  0  0.50    -13308.1683   2.0000                                         
     2  1  1.50    -11558.0021   6.0000                                         
     3  0  0.50     -3110.7274   2.0000                                         
     3  1  1.50     -2599.2109   6.0000                                         
     3  2  2.50     -2037.1515  10.0000                                         
     4  0  0.50      -661.6001   2.0000                                         
     4  1  1.50      -493.8981   6.0000                                         
     4  2  2.50      -288.1909  10.0000                                         
     4  3  3.50       -59.5718  14.0000                                         
     5  0  0.50       -95.3879   2.0000                                         
     5  1  1.50       -52.2747   6.0000                                         
     5  2  2.50        -5.4180   8.0000                                         
     6  0  0.50        -5.5479   1.0000                                         
     6  1  1.50        -6.8029   0.0000                                         
     5  3  2.50        -1.3606   0.0000                                         
   Description                                                                  
     l       E           TYP  RCUT    TYP  RCUT                                 
     2     -5.4179967     23  2.600                                             
     2     -6.7785793     23  2.600                                             
     0     -5.5478636     23  2.600                                             
     0      2.2542272     23  2.600                                             
     1     -2.7211652     23  2.600                                             
     1     20.4087390     23  2.600                                             
  local pseudopotential read in
  partial core-charges read in
  partial kinetic energy density read in
  atomic valenz-charges read in
  non local Contribution for L=           2  read in
    real space projection operators read in
  non local Contribution for L=           2  read in
    real space projection operators read in
  non local Contribution for L=           0  read in
    real space projection operators read in
  non local Contribution for L=           0  read in
    real space projection operators read in
  non local Contribution for L=           1  read in
    real space projection operators read in
  non local Contribution for L=           1  read in
    real space projection operators read in
    PAW grid and wavefunctions read in
 
   number of l-projection  operators is LMAX  =           6
   number of lm-projection operators is LMMAX =          18
 
 Optimization of the real space projectors (new method)

 maximal supplied QI-value         = 24.76
 optimisation between [QCUT,QGAM] = [ 12.38, 31.19] = [ 42.90,272.45] Ry 
 Optimized for a Real-space Cutoff    0.88 Angstroem

   l    n(q)    QCUT    max X(q) W(low)/X(q) W(high)/X(q)  e(spline) 
   0      8    12.378    20.381    0.23E-03    0.15E-03    0.14E-06
   0      8    12.378    15.268    0.25E-03    0.16E-03    0.15E-06
   1      8    12.378     5.964    0.24E-03    0.11E-03    0.16E-06
   1      8    12.378     5.382    0.21E-03    0.84E-04    0.13E-06
 Optimization of the real space projectors (new method)

 maximal supplied QI-value         = 14.36
 optimisation between [QCUT,QGAM] = [ 12.49, 31.31] = [ 43.72,274.50] Ry 
 Optimized for a Real-space Cutoff    1.40 Angstroem

   l    n(q)    QCUT    max X(q) W(low)/X(q) W(high)/X(q)  e(spline) 
   2     12    12.495   134.116    0.29E-03    0.64E-03    0.30E-04
   2     12    12.495   130.192    0.29E-03    0.64E-03    0.30E-04
   0     13    12.495    60.310    0.11E-03    0.19E-03    0.31E-04
   0     13    12.495    39.218    0.10E-03    0.18E-03    0.29E-04
   1     13    12.495    18.439    0.29E-03    0.21E-04    0.43E-04
   1     13    12.495    12.760    0.22E-03    0.16E-04    0.33E-04
  PAW_PBE O 08Apr2002                   :
 energy of atom  1       EATOM= -432.3788
 kinetic energy error for atom=    0.0168 (will be added to EATOM!!)
  PAW_PBE Ir 06Sep2000                  :
 energy of atom  2       EATOM= -560.1833
 kinetic energy error for atom=    0.0008 (will be added to EATOM!!)
 
 
 POSCAR:  O Ir                                   
  positions in cartesian coordinates
  No initial velocities read in
 exchange correlation table for  LEXCH =        8
   RHO(1)=    0.500       N(1)  =     2000
   RHO(2)=  100.500       N(2)  =     4000

 VTST: version 3.2, (02/03/18)

 CHAIN: initializing optimizer
 
 OPT: Using VASP Conjugate-Gradient optimizer
 CHAIN: Read ICHAIN            0
 
 POSCAR:  O Ir                                   
  positions in cartesian coordinates
  No initial velocities read in
 


--------------------------------------------------------------------------------------------------------


 ion  position               nearest neighbor table
   1  0.750  0.250  0.500-  13 1.88  13 1.88
   2  0.250  0.750  0.500-  14 1.88  14 1.88
   3  0.250  0.250  0.500-  15 1.88  15 1.88
   4  0.750  0.750  0.500-  16 1.88  16 1.88
   5  0.500  0.750  0.000-  14 1.91  16 1.91
   6  0.500  0.250  0.000-  13 1.91  15 1.91
   7  0.750  0.500  0.000-  16 1.91  13 1.91
   8  0.250  0.500  0.000-  15 1.91  14 1.91
   9  0.000  0.250  0.000-  15 1.91  13 1.91
  10  1.000  0.750  0.000-  16 1.91  14 1.91
  11  0.750  0.000  0.000-  13 1.91  16 1.91
  12  0.250  1.000  0.000-  14 1.91  15 1.91
  13  0.750  0.250  0.000-   1 1.88   1 1.88  11 1.91   6 1.91   7 1.91   9 1.91
  14  0.250  0.750  0.000-   2 1.88   2 1.88  12 1.91   5 1.91   8 1.91  10 1.91
  15  0.250  0.250  0.000-   3 1.88   3 1.88   9 1.91   8 1.91  12 1.91   6 1.91
  16  0.750  0.750  0.000-   4 1.88   4 1.88  10 1.91   7 1.91  11 1.91   5 1.91
 
  LATTYP: Found a simple tetragonal cell.
 ALAT       =     7.6216900000
 C/A-ratio  =     0.4942407786
  
  Lattice vectors:
  
 A1 = (   7.6216900000,   0.0000000000,   0.0000000000)
 A2 = (   0.0000000000,   7.6216900000,   0.0000000000)
 A3 = (   0.0000000000,   0.0000000000,   3.7669500000)


Analysis of symmetry for initial positions (statically):
=====================================================================
 Subroutine PRICEL returns:
 Original cell was already a primitive cell.
 

 Routine SETGRP: Setting up the symmetry group for a 
 simple tetragonal supercell.


 Subroutine GETGRP returns: Found 16 space group operations
 (whereof  8 operations were pure point group operations)
 out of a pool of 16 trial point group operations.


The static configuration has the point symmetry C_4h.
 The point group associated with its full space group is D_4h.


Analysis of symmetry for dynamics (positions and initial velocities):
=====================================================================
 Subroutine PRICEL returns:
 Original cell was already a primitive cell.
 

 Routine SETGRP: Setting up the symmetry group for a 
 simple tetragonal supercell.


 Subroutine GETGRP returns: Found 16 space group operations
 (whereof  8 operations were pure point group operations)
 out of a pool of 16 trial point group operations.


The dynamic configuration has the point symmetry C_4h.
 The point group associated with its full space group is D_4h.


Analysis of structural, dynamic, and magnetic symmetry:
=====================================================================
 Subroutine PRICEL returns:
 Original cell was already a primitive cell.
 

 Routine SETGRP: Setting up the symmetry group for a 
 simple tetragonal supercell.


 Subroutine GETGRP returns: Found 16 space group operations
 (whereof  8 operations were pure point group operations)
 out of a pool of 16 trial point group operations.


The magnetic configuration has the point symmetry C_4h.
 The point group associated with its full space group is D_4h.


 Subroutine INISYM returns: Found 16 space group operations
 (whereof  8 operations are pure point group operations),
 and found     1 'primitive' translations

 
 
 KPOINTS: KPOINTS created by Atomic Simulation Env

Automatic generation of k-mesh.
Space group operators:
 irot       det(A)        alpha          n_x          n_y          n_z        tau_x        tau_y        tau_z
    1     1.000000     0.000000     1.000000     0.000000     0.000000     0.000000     0.000000     0.000000
    2    -1.000000     0.000000     1.000000     0.000000     0.000000     0.000000     0.000000     0.000000
    3     1.000000    90.000000     0.000000     0.000000    -1.000000     0.000000     0.000000     0.000000
    4    -1.000000    90.000000     0.000000     0.000000    -1.000000     0.000000     0.000000     0.000000
    5     1.000000   180.000000     0.000000     0.000000     1.000000     0.000000     0.000000     0.000000
    6    -1.000000   180.000000     0.000000     0.000000     1.000000     0.000000     0.000000     0.000000
    7     1.000000    90.000000     0.000000     0.000000     1.000000     0.000000     0.000000     0.000000
    8    -1.000000    90.000000     0.000000     0.000000     1.000000     0.000000     0.000000     0.000000
    9     1.000000   180.000000     0.000000     1.000000     0.000000     0.500000     0.500000     0.000000
   10    -1.000000   180.000000     0.000000     1.000000     0.000000     0.500000     0.500000     0.000000
   11     1.000000   180.000000     0.707107     0.707107     0.000000     0.500000     0.500000     0.000000
   12    -1.000000   180.000000     0.707107     0.707107     0.000000     0.500000     0.500000     0.000000
   13     1.000000   180.000000     1.000000     0.000000     0.000000     0.500000     0.500000     0.000000
   14    -1.000000   180.000000     1.000000     0.000000     0.000000     0.500000     0.500000     0.000000
   15     1.000000   180.000000     0.707107    -0.707107     0.000000     0.500000     0.500000     0.000000
   16    -1.000000   180.000000     0.707107    -0.707107     0.000000     0.500000     0.500000     0.000000
 
 Subroutine IBZKPT returns following result:
 ===========================================
 
 Found      9 irreducible k-points:
 
 Following reciprocal coordinates:
            Coordinates               Weight
  0.000000  0.000000  0.000000      1.000000
  0.500000  0.000000  0.000000      2.000000
  0.500000  0.500000  0.000000      1.000000
  0.000000  0.000000  0.200000      2.000000
  0.500000  0.000000  0.200000      4.000000
  0.500000  0.500000  0.200000      2.000000
  0.000000  0.000000  0.400000      2.000000
  0.500000  0.000000  0.400000      4.000000
  0.500000  0.500000  0.400000      2.000000
 
 Following cartesian coordinates:
            Coordinates               Weight
  0.000000  0.000000  0.000000      1.000000
  0.065602  0.000000  0.000000      2.000000
  0.065602  0.065602  0.000000      1.000000
  0.000000  0.000000  0.053093      2.000000
  0.065602  0.000000  0.053093      4.000000
  0.065602  0.065602  0.053093      2.000000
  0.000000  0.000000  0.106187      2.000000
  0.065602  0.000000  0.106187      4.000000
  0.065602  0.065602  0.106187      2.000000
 


--------------------------------------------------------------------------------------------------------




 Dimension of arrays:
   k-points           NKPTS =      9   k-points in BZ     NKDIM =      9   number of bands    NBANDS=     72
   number of dos      NEDOS =    301   number of ions     NIONS =     16
   non local maximal  LDIM  =      6   non local SUM 2l+1 LMDIM =     18
   total plane-waves  NPLWV = 122880
   max r-space proj   IRMAX =   6572   max aug-charges    IRDMAX=  11857
   dimension x,y,z NGX =    64 NGY =   64 NGZ =   30
   dimension x,y,z NGXF=    84 NGYF=   84 NGZF=   40
   support grid    NGXF=    84 NGYF=   84 NGZF=   40
   ions per type =              12   4
   NGX,Y,Z   is equivalent  to a cutoff of  13.96, 13.96, 13.24 a.u.
   NGXF,Y,Z  is equivalent  to a cutoff of  18.32, 18.32, 17.65 a.u.

 SYSTEM =  unknown system                          
 POSCAR =   O Ir                                   

 Startparameter for this run:
   NWRITE =      2    write-flag & timer
   PREC   = high      normal or accurate (medium, high low for compatibility)
   ISTART =      0    job   : 0-new  1-cont  2-samecut
   ICHARG =      2    charge: 1-file 2-atom 10-const
   ISPIN  =      2    spin polarized calculation?
   LNONCOLLINEAR =      F non collinear calculations
   LSORBIT =      F    spin-orbit coupling
   INIWAV =      1    electr: 0-lowe 1-rand  2-diag
   LASPH  =      T    aspherical Exc in radial PAW
   METAGGA=      F    non-selfconsistent MetaGGA calc.

 Electronic Relaxation 1
   ENCUT  =  600.0 eV  44.10 Ry    6.64 a.u.  15.22 15.22  7.52*2*pi/ulx,y,z
   ENINI  =  600.0     initial cutoff
   ENAUG  =  605.4 eV  augmentation charge cutoff
   NELM   =    220;   NELMIN=  2; NELMDL= -5     # of ELM steps 
   EDIFF  = 0.1E-05   stopping-criterion for ELM
   LREAL  =      T    real-space projection
   NLSPLINE    = F    spline interpolate recip. space projectors
   LCOMPAT=      F    compatible to vasp.4.4
   GGA_COMPAT  = T    GGA compatible to vasp.4.4-vasp.4.6
   LMAXPAW     = -100 max onsite density
   LMAXMIX     =    6 max onsite mixed and CHGCAR
   VOSKOWN=      0    Vosko Wilk Nusair interpolation
   ROPT   =   -0.00040  -0.00040
 Ionic relaxation
   EDIFFG = 0.1E-02   stopping-criterion for IOM
   NSW    =    150    number of steps for IOM
   NBLOCK =      1;   KBLOCK =    150    inner block; outer block 
   IBRION =      2    ionic relax: 0-MD 1-quasi-New 2-CG
   NFREE  =      1    steps in history (QN), initial steepest desc. (CG)
   ISIF   =      2    stress and relaxation
   IWAVPR =     11    prediction:  0-non 1-charg 2-wave 3-comb
   ISYM   =      2    0-nonsym 1-usesym 2-fastsym
   LCORR  =      T    Harris-Foulkes like correction to forces

   POTIM  = 0.0300    time-step for ionic-motion
   TEIN   =    0.0    initial temperature
   TEBEG  =    0.0;   TEEND  =   0.0 temperature during run
   SMASS  =  -3.00    Nose mass-parameter (am)
   estimated Nose-frequenzy (Omega)   =  0.10E-29 period in steps =****** mass=  -0.133E-26a.u.
   SCALEE = 1.0000    scale energy and forces
   NPACO  =    256;   APACO  = 16.0  distance and # of slots for P.C.
   PSTRESS=    0.0 pullay stress

  Mass of Ions in am
   POMASS =  16.00192.22
  Ionic Valenz
   ZVAL   =   6.00  9.00
  Atomic Wigner-Seitz radii
   RWIGS  =  -1.00 -1.00
  virtual crystal weights 
   VCA    =   1.00  1.00
   NELECT =     108.0000    total number of electrons
   NUPDOWN=      -1.0000    fix difference up-down

 DOS related values:
   EMIN   =  10.00;   EMAX   =-10.00  energy-range for DOS
   EFERMI =   0.00
   ISMEAR =     0;   SIGMA  =   0.05  broadening in eV -4-tet -1-fermi 0-gaus

 Electronic relaxation 2 (details)
   IALGO  =     68    algorithm
   LDIAG  =      T    sub-space diagonalisation (order eigenvalues)
   LSUBROT=      F    optimize rotation matrix (better conditioning)
   TURBO    =      0    0=normal 1=particle mesh
   IRESTART =      0    0=no restart 2=restart with 2 vectors
   NREBOOT  =      0    no. of reboots
   NMIN     =      0    reboot dimension
   EREF     =   0.00    reference energy to select bands
   IMIX   =      4    mixing-type and parameters
     AMIX     =   0.20;   BMIX     =  0.00
     AMIX_MAG =   0.10;   BMIX_MAG =  0.00
     AMIN     =   0.10
     WC   =   100.;   INIMIX=   0;  MIXPRE=   1;  MAXMIX= -45

 Intra band minimization:
   WEIMIN = 0.0010     energy-eigenvalue tresh-hold
   EBREAK =  0.35E-08  absolut break condition
   DEPER  =   0.30     relativ break condition  

   TIME   =   0.40     timestep for ELM

  volume/ion in A,a.u.               =      13.68        92.29
  Fermi-wavevector in a.u.,A,eV,Ry     =   1.293755  2.444842 22.773449  1.673801
  Thomas-Fermi vector in A             =   2.425380
 
 Write flags
   LWAVE        =      T    write WAVECAR
   LDOWNSAMPLE  =      F    k-point downsampling of WAVECAR
   LCHARG       =      T    write CHGCAR
   LVTOT        =      F    write LOCPOT, total local potential
   LVHAR        =      F    write LOCPOT, Hartree potential only
   LELF         =      F    write electronic localiz. function (ELF)
   LORBIT       =     11    0 simple, 1 ext, 2 COOP (PROOUT), +10 PAW based schemes


 Dipole corrections
   LMONO  =      F    monopole corrections only (constant potential shift)
   LDIPOL =      F    correct potential (dipole corrections)
   IDIPOL =      0    1-x, 2-y, 3-z, 4-all directions 
   EPSILON=  1.0000000 bulk dielectric constant

 Exchange correlation treatment:
   GGA     =    PE    GGA type
   LEXCH   =     8    internal setting for exchange type
   VOSKOWN=      0    Vosko Wilk Nusair interpolation
   LHFCALC =     F    Hartree Fock is set to
   LHFONE  =     F    Hartree Fock one center treatment
   AEXX    =    0.0000 exact exchange contribution

 Linear response parameters
   LEPSILON=     F    determine dielectric tensor
   LRPA    =     F    only Hartree local field effects (RPA)
   LNABLA  =     F    use nabla operator in PAW spheres
   LVEL    =     F    velocity operator in full k-point grid
   LINTERFAST=   F  fast interpolation
   KINTER  =     0    interpolate to denser k-point grid
   CSHIFT  =0.1000    complex shift for real part using Kramers Kronig
   OMEGAMAX=  -1.0    maximum frequency
   DEG_THRESHOLD= 0.2000000E-02 threshold for treating states as degnerate
   RTIME   =   -0.100 relaxation time in fs
  (WPLASMAI=    0.000 imaginary part of plasma frequency in eV, 0.658/RTIME)
   DFIELD  = 0.0000000 0.0000000 0.0000000 field for delta impulse in time
 
 Orbital magnetization related:
   ORBITALMAG=     F  switch on orbital magnetization
   LCHIMAG   =     F  perturbation theory with respect to B field
   DQ        =  0.001000  dq finite difference perturbation B field
   LLRAUG    =     F  two centre corrections for induced B field



--------------------------------------------------------------------------------------------------------


 conjugate gradient relaxation of ions
 charge density and potential will be updated during run
 spin polarized calculation
 RMM-DIIS sequential band-by-band and
  variant of blocked Davidson during initial phase
 perform sub-space diagonalisation
    before iterative eigenvector-optimisation
 modified Broyden-mixing scheme, WC =      100.0
 initial mixing is a simple linear mixing with ALPHA =  0.2000
 Hartree-type preconditioning will be used
 using additional bands           18
 real space projection scheme for non local part
 use partial core corrections
 calculate Harris-corrections to forces 
   (improved forces if not selfconsistent)
 use gradient corrections 
 use of overlap-Matrix (Vanderbilt PP)
 Gauss-broadening in eV      SIGMA  =   0.05


--------------------------------------------------------------------------------------------------------


  energy-cutoff  :      600.00
  volume of cell :      218.82
      direct lattice vectors                 reciprocal lattice vectors
     7.621690000  0.000000000  0.000000000     0.131204497  0.000000000  0.000000000
     0.000000000  7.621690000  0.000000000     0.000000000  0.131204497  0.000000000
     0.000000000  0.000000000  3.766950000     0.000000000  0.000000000  0.265466757

  length of vectors
     7.621690000  7.621690000  3.766950000     0.131204497  0.131204497  0.265466757


 
 k-points in units of 2pi/SCALE and weight: KPOINTS created by Atomic Simulation Env
   0.00000000  0.00000000  0.00000000       0.050
   0.06560225  0.00000000  0.00000000       0.100
   0.06560225  0.06560225  0.00000000       0.050
   0.00000000  0.00000000  0.05309335       0.100
   0.06560225  0.00000000  0.05309335       0.200
   0.06560225  0.06560225  0.05309335       0.100
   0.00000000  0.00000000  0.10618670       0.100
   0.06560225  0.00000000  0.10618670       0.200
   0.06560225  0.06560225  0.10618670       0.100
 
 k-points in reciprocal lattice and weights: KPOINTS created by Atomic Simulation Env
   0.00000000  0.00000000  0.00000000       0.050
   0.50000000  0.00000000  0.00000000       0.100
   0.50000000  0.50000000  0.00000000       0.050
   0.00000000  0.00000000  0.20000000       0.100
   0.50000000  0.00000000  0.20000000       0.200
   0.50000000  0.50000000  0.20000000       0.100
   0.00000000  0.00000000  0.40000000       0.100
   0.50000000  0.00000000  0.40000000       0.200
   0.50000000  0.50000000  0.40000000       0.100
 
 position of ions in fractional coordinates (direct lattice) 
   0.75001000  0.25001000  0.50000000
   0.24999000  0.74999000  0.50000000
   0.25001000  0.24999000  0.50000000
   0.74999000  0.75001000  0.50000000
   0.49998000  0.75000000  0.00000000
   0.50002000  0.25000000  0.00000000
   0.75000000  0.50002000  0.00000000
   0.25000000  0.49998000  0.00000000
   0.00002000  0.25000000  0.00000000
   0.99998000  0.75000000  0.00000000
   0.75000000  0.00002000  0.00000000
   0.25000000  0.99998000  0.00000000
   0.75001000  0.25001000  0.00000000
   0.24999000  0.74999000  0.00000000
   0.25001000  0.24999000  0.00000000
   0.74999000  0.75001000  0.00000000
 
 position of ions in cartesian coordinates  (Angst):
   5.71634372  1.90549872  1.88347500
   1.90534628  5.71619128  1.88347500
   1.90549872  1.90534628  1.88347500
   5.71619128  5.71634372  1.88347500
   3.81069257  5.71626750  0.00000000
   3.81099743  1.90542250  0.00000000
   5.71626750  3.81099743  0.00000000
   1.90542250  3.81069257  0.00000000
   0.00015243  1.90542250  0.00000000
   7.62153757  5.71626750  0.00000000
   5.71626750  0.00015243  0.00000000
   1.90542250  7.62153757  0.00000000
   5.71634372  1.90549872  0.00000000
   1.90534628  5.71619128  0.00000000
   1.90549872  1.90534628  0.00000000
   5.71619128  5.71634372  0.00000000
 


--------------------------------------------------------------------------------------------------------


 k-point  1 :   0.0000 0.0000 0.0000  plane waves:    7283
 k-point  2 :   0.5000 0.0000 0.0000  plane waves:    7334
 k-point  3 :   0.5000 0.5000 0.0000  plane waves:    7308
 k-point  4 :   0.0000 0.0000 0.2000  plane waves:    7307
 k-point  5 :   0.5000 0.0000 0.2000  plane waves:    7328
 k-point  6 :   0.5000 0.5000 0.2000  plane waves:    7320
 k-point  7 :   0.0000 0.0000 0.4000  plane waves:    7295
 k-point  8 :   0.5000 0.0000 0.4000  plane waves:    7264
 k-point  9 :   0.5000 0.5000 0.4000  plane waves:    7280

 maximum and minimum number of plane-waves per node :       698      624

 maximum number of plane-waves:      7334
 maximum index in each direction: 
   IXMAX=   15   IYMAX=   15   IZMAX=    7
   IXMIN=  -15   IYMIN=  -15   IZMIN=   -7


 real space projection operators:
  total allocation   :       4688.44 KBytes
  max/ min on nodes  :        453.38        399.59


 parallel 3D FFT for wavefunctions:
    minimum data exchange during FFTs selected (reduces bandwidth)
 parallel 3D FFT for charge:
    minimum data exchange during FFTs selected (reduces bandwidth)


 total amount of memory used by VASP MPI-rank0    36963. kBytes
=======================================================================

   base      :      30000. kBytes
   nonlr-proj:       2337. kBytes
   fftplans  :        584. kBytes
   grid      :       1492. kBytes
   one-center:         62. kBytes
   wavefun   :       2488. kBytes
 
     INWAV:  cpu time    0.0002: real time    0.0002
 Broyden mixing: mesh for mixing (old mesh)
   NGX = 31   NGY = 31   NGZ = 15
  (NGX  = 84   NGY  = 84   NGZ  = 40)
  gives a total of  14415 points

 initial charge density was supplied:
 charge density of overlapping atoms calculated
 number of electron     108.0000000 magnetization      16.0000000
 keeping initial charge density in first step


--------------------------------------------------------------------------------------------------------


 Maximum index for non-local projection operator          632
 Maximum index for augmentation-charges          573 (set IRDMAX)


--------------------------------------------------------------------------------------------------------


 First call to EWALD:  gamma=   0.294
 Maximum number of real-space cells 2x 2x 4
 Maximum number of reciprocal cells 3x 3x 2

    FEWALD:  cpu time    0.0084: real time    0.0084


--------------------------------------- Iteration      1(   1)  ---------------------------------------


    POTLOK:  cpu time    0.0565: real time    0.1265
    SETDIJ:  cpu time    2.6531: real time    2.6593
     EDDAV:  cpu time    0.6390: real time    0.7363
       DOS:  cpu time    0.0112: real time    0.0153
    --------------------------------------------
      LOOP:  cpu time    3.3600: real time    3.5376

 eigenvalue-minimisations  :  2592
 total energy-change (2. order) : 0.1210852E+04  (-0.5777833E+04)
 number of electron     108.0000000 magnetization      16.0000000
 augmentation part      108.0000000 magnetization      16.0000000

 Free energy of the ion-electron system (eV)
  ---------------------------------------------------
  alpha Z        PSCENC =       387.27776845
  Ewald energy   TEWEN  =     -5258.21292263
  -Hartree energ DENC   =     -2400.66155702
  -exchange      EXHF   =         0.00000000
  -V(xc)+E(xc)   XCENC  =       264.58869682
  PAW double counting   =      6362.12184073    -6222.39335305
  entropy T*S    EENTRO =        -0.00574228
  eigenvalues    EBANDS =       649.06355594
  atomic energy  EATOM  =      7429.07371459
  Solvation  Ediel_sol  =         0.00000000
  ---------------------------------------------------
  free energy    TOTEN  =      1210.85200155 eV

  energy without entropy =     1210.85774383  energy(sigma->0) =     1210.85487269


--------------------------------------------------------------------------------------------------------




--------------------------------------- Iteration      1(   2)  ---------------------------------------


     EDDAV:  cpu time    0.6237: real time    0.6635
       DOS:  cpu time    0.0048: real time    0.0048
    --------------------------------------------
      LOOP:  cpu time    0.6285: real time    0.6683

 eigenvalue-minimisations  :  2628
 total energy-change (2. order) :-0.1179443E+04  (-0.1119547E+04)
 number of electron     108.0000000 magnetization      16.0000000
 augmentation part      108.0000000 magnetization      16.0000000

 Free energy of the ion-electron system (eV)
  ---------------------------------------------------
  alpha Z        PSCENC =       387.27776845
  Ewald energy   TEWEN  =     -5258.21292263
  -Hartree energ DENC   =     -2400.66155702
  -exchange      EXHF   =         0.00000000
  -V(xc)+E(xc)   XCENC  =       264.58869682
  PAW double counting   =      6362.12184073    -6222.39335305
  entropy T*S    EENTRO =        -0.01330181
  eigenvalues    EBANDS =      -530.37164242
  atomic energy  EATOM  =      7429.07371459
  Solvation  Ediel_sol  =         0.00000000
  ---------------------------------------------------
  free energy    TOTEN  =        31.40924367 eV

  energy without entropy =       31.42254547  energy(sigma->0) =       31.41589457


--------------------------------------------------------------------------------------------------------




--------------------------------------- Iteration      1(   3)  ---------------------------------------


     EDDAV:  cpu time    0.7405: real time    0.7906
       DOS:  cpu time    0.0051: real time    0.0090
    --------------------------------------------
      LOOP:  cpu time    0.7456: real time    0.7996

 eigenvalue-minimisations  :  3504
 total energy-change (2. order) :-0.1610894E+03  (-0.1527351E+03)
 number of electron     108.0000000 magnetization      16.0000000
 augmentation part      108.0000000 magnetization      16.0000000

 Free energy of the ion-electron system (eV)
  ---------------------------------------------------
  alpha Z        PSCENC =       387.27776845
  Ewald energy   TEWEN  =     -5258.21292263
  -Hartree energ DENC   =     -2400.66155702
  -exchange      EXHF   =         0.00000000
  -V(xc)+E(xc)   XCENC  =       264.58869682
  PAW double counting   =      6362.12184073    -6222.39335305
  entropy T*S    EENTRO =        -0.01276285
  eigenvalues    EBANDS =      -691.46153651
  atomic energy  EATOM  =      7429.07371459
  Solvation  Ediel_sol  =         0.00000000
  ---------------------------------------------------
  free energy    TOTEN  =      -129.68011147 eV

  energy without entropy =     -129.66734862  energy(sigma->0) =     -129.67373005


--------------------------------------------------------------------------------------------------------




--------------------------------------- Iteration      1(   4)  ---------------------------------------


     EDDAV:  cpu time    0.6684: real time    0.6807
       DOS:  cpu time    0.0053: real time    0.0053
    --------------------------------------------
      LOOP:  cpu time    0.6737: real time    0.6860

 eigenvalue-minimisations  :  2844
 total energy-change (2. order) :-0.5665075E+01  (-0.5627746E+01)
 number of electron     108.0000000 magnetization      16.0000000
 augmentation part      108.0000000 magnetization      16.0000000

 Free energy of the ion-electron system (eV)
  ---------------------------------------------------
  alpha Z        PSCENC =       387.27776845
  Ewald energy   TEWEN  =     -5258.21292263
  -Hartree energ DENC   =     -2400.66155702
  -exchange      EXHF   =         0.00000000
  -V(xc)+E(xc)   XCENC  =       264.58869682
  PAW double counting   =      6362.12184073    -6222.39335305
  entropy T*S    EENTRO =        -0.01700383
  eigenvalues    EBANDS =      -697.12237091
  atomic energy  EATOM  =      7429.07371459
  Solvation  Ediel_sol  =         0.00000000
  ---------------------------------------------------
  free energy    TOTEN  =      -135.34518684 eV

  energy without entropy =     -135.32818302  energy(sigma->0) =     -135.33668493


--------------------------------------------------------------------------------------------------------




--------------------------------------- Iteration      1(   5)  ---------------------------------------


     EDDAV:  cpu time    0.6828: real time    0.7453
       DOS:  cpu time    0.0047: real time    0.0047
    CHARGE:  cpu time    0.1493: real time    0.1573
    MIXING:  cpu time    0.0082: real time    0.0125
    --------------------------------------------
      LOOP:  cpu time    0.8451: real time    0.9198

 eigenvalue-minimisations  :  3192
 total energy-change (2. order) :-0.1584191E+00  (-0.1583450E+00)
 number of electron     107.9999697 magnetization      14.7257972
 augmentation part       15.9580373 magnetization      12.8978459

 Broyden mixing:
  rms(total) = 0.10286E+02    rms(broyden)= 0.10286E+02
  rms(prec ) = 0.11387E+02
  weight for this iteration     100.00

 Free energy of the ion-electron system (eV)
  ---------------------------------------------------
  alpha Z        PSCENC =       387.27776845
  Ewald energy   TEWEN  =     -5258.21292263
  -Hartree energ DENC   =     -2400.66155702
  -exchange      EXHF   =         0.00000000
  -V(xc)+E(xc)   XCENC  =       264.58869682
  PAW double counting   =      6362.12184073    -6222.39335305
  entropy T*S    EENTRO =        -0.01705979
  eigenvalues    EBANDS =      -697.28073400
  atomic energy  EATOM  =      7429.07371459
  Solvation  Ediel_sol  =         0.00000000
  ---------------------------------------------------
  free energy    TOTEN  =      -135.50360590 eV

  energy without entropy =     -135.48654611  energy(sigma->0) =     -135.49507601


--------------------------------------------------------------------------------------------------------




--------------------------------------- Iteration      1(   6)  ---------------------------------------


    POTLOK:  cpu time    0.0404: real time    0.0880
    SETDIJ:  cpu time    2.6422: real time    2.6422
    EDDIAG:  cpu time    0.1732: real time    0.1808
  RMM-DIIS:  cpu time    0.2468: real time    0.2526
    ORTHCH:  cpu time    0.0106: real time    0.0106
       DOS:  cpu time    0.0054: real time    0.0054
    CHARGE:  cpu time    0.1444: real time    0.1444
    MIXING:  cpu time    0.0062: real time    0.0139
    --------------------------------------------
      LOOP:  cpu time    3.2692: real time    3.3380

 eigenvalue-minimisations  :  2629
 total energy-change (2. order) : 0.3653634E+02  (-0.4747676E+01)
 number of electron     107.9999752 magnetization      12.9851492
 augmentation part       16.8559284 magnetization      10.4060514

 Broyden mixing:
  rms(total) = 0.55776E+01    rms(broyden)= 0.55775E+01
  rms(prec ) = 0.57426E+01
  weight for this iteration     100.00

 eigenvalues of (default mixing * dielectric matrix)
  average eigenvalue GAMMA=   1.8150
  1.8150

 Free energy of the ion-electron system (eV)
  ---------------------------------------------------
  alpha Z        PSCENC =       387.27776845
  Ewald energy   TEWEN  =     -5258.21292263
  -Hartree energ DENC   =     -2433.96193023
  -exchange      EXHF   =         0.00000000
  -V(xc)+E(xc)   XCENC  =       271.20925566
  PAW double counting   =      7096.58955706    -6963.46379352
  entropy T*S    EENTRO =        -0.02513531
  eigenvalues    EBANDS =      -627.45377812
  atomic energy  EATOM  =      7429.07371459
  Solvation  Ediel_sol  =         0.00000000
  ---------------------------------------------------
  free energy    TOTEN  =       -98.96726406 eV

  energy without entropy =      -98.94212875  energy(sigma->0) =      -98.95469640


--------------------------------------------------------------------------------------------------------




--------------------------------------- Iteration      1(   7)  ---------------------------------------


    POTLOK:  cpu time    0.0405: real time    0.0884
    SETDIJ:  cpu time    2.5973: real time    2.6415
    EDDIAG:  cpu time    0.1751: real time    0.1751
  RMM-DIIS:  cpu time    0.2296: real time    0.2296
    ORTHCH:  cpu time    0.0104: real time    0.0104
       DOS:  cpu time    0.0074: real time    0.0074
    CHARGE:  cpu time    0.1419: real time    0.1419
    MIXING:  cpu time    0.0084: real time    0.0129
    --------------------------------------------
      LOOP:  cpu time    3.2107: real time    3.3072

 eigenvalue-minimisations  :  2599
 total energy-change (2. order) :-0.3063575E+00  (-0.1530175E+01)
 number of electron     107.9999789 magnetization      13.5005961
 augmentation part       17.8968284 magnetization       9.4623317

 Broyden mixing:
  rms(total) = 0.47018E+01    rms(broyden)= 0.47017E+01
  rms(prec ) = 0.48402E+01
  weight for this iteration     100.00

 eigenvalues of (default mixing * dielectric matrix)
  average eigenvalue GAMMA=   1.1446
  1.6363  0.6528

 Free energy of the ion-electron system (eV)
  ---------------------------------------------------
  alpha Z        PSCENC =       387.27776845
  Ewald energy   TEWEN  =     -5258.21292263
  -Hartree energ DENC   =     -2445.08628866
  -exchange      EXHF   =         0.00000000
  -V(xc)+E(xc)   XCENC  =       273.71781116
  PAW double counting   =      8020.77347210    -7893.25174832
  entropy T*S    EENTRO =        -0.03685891
  eigenvalues    EBANDS =      -613.52856931
  atomic energy  EATOM  =      7429.07371459
  Solvation  Ediel_sol  =         0.00000000
  ---------------------------------------------------
  free energy    TOTEN  =       -99.27362153 eV

  energy without entropy =      -99.23676262  energy(sigma->0) =      -99.25519207


--------------------------------------------------------------------------------------------------------




--------------------------------------- Iteration      1(   8)  ---------------------------------------


    POTLOK:  cpu time    0.0422: real time    0.0903
    SETDIJ:  cpu time    2.6404: real time    2.6405
    EDDIAG:  cpu time    0.1698: real time    0.1698
  RMM-DIIS:  cpu time    0.2433: real time    0.2435
    ORTHCH:  cpu time    0.0105: real time    0.0105
       DOS:  cpu time    0.0061: real time    0.0061
    CHARGE:  cpu time    0.1444: real time    0.1444
    MIXING:  cpu time    0.0074: real time    0.0082
    --------------------------------------------
      LOOP:  cpu time    3.2641: real time    3.3132

 eigenvalue-minimisations  :  2660
 total energy-change (2. order) :-0.2302010E+01  (-0.2645635E+00)
 number of electron     107.9999807 magnetization      10.7351349
 augmentation part       18.1315921 magnetization       6.1952950

 Broyden mixing:
  rms(total) = 0.63135E+01    rms(broyden)= 0.63135E+01
  rms(prec ) = 0.65833E+01
  weight for this iteration     100.00

 eigenvalues of (default mixing * dielectric matrix)
  average eigenvalue GAMMA=   1.5333
  2.7958  0.9021  0.9021

 Free energy of the ion-electron system (eV)
  ---------------------------------------------------
  alpha Z        PSCENC =       387.27776845
  Ewald energy   TEWEN  =     -5258.21292263
  -Hartree energ DENC   =     -2447.65120674
  -exchange      EXHF   =         0.00000000
  -V(xc)+E(xc)   XCENC  =       274.36736717
  PAW double counting   =      7714.41346482    -7585.78150044
  entropy T*S    EENTRO =        -0.03000039
  eigenvalues    EBANDS =      -615.03231645
  atomic energy  EATOM  =      7429.07371459
  Solvation  Ediel_sol  =         0.00000000
  ---------------------------------------------------
  free energy    TOTEN  =      -101.57563162 eV

  energy without entropy =     -101.54563123  energy(sigma->0) =     -101.56063142


--------------------------------------------------------------------------------------------------------




--------------------------------------- Iteration      1(   9)  ---------------------------------------


    POTLOK:  cpu time    0.0418: real time    6.7135
    SETDIJ:  cpu time    2.6400: real time    2.6400
    EDDIAG:  cpu time    0.1708: real time    0.1708
  RMM-DIIS:  cpu time    0.2351: real time    0.2351
    ORTHCH:  cpu time    0.0104: real time    0.0104
       DOS:  cpu time    0.0069: real time    0.0069
    CHARGE:  cpu time    0.1523: real time    0.1523
    MIXING:  cpu time    0.0071: real time    0.0074
    --------------------------------------------
      LOOP:  cpu time    3.2644: real time    9.9365

 eigenvalue-minimisations  :  2599
 total energy-change (2. order) : 0.2469409E+01  (-0.2981098E+00)
 number of electron     107.9999771 magnetization       9.8609758
 augmentation part       17.3712258 magnetization       8.4616428

 Broyden mixing:
  rms(total) = 0.23395E+01    rms(broyden)= 0.23392E+01
  rms(prec ) = 0.24503E+01
  weight for this iteration     100.00

 eigenvalues of (default mixing * dielectric matrix)
  average eigenvalue GAMMA=   1.4610
  3.7689  1.0295  0.6522  0.3935

 Free energy of the ion-electron system (eV)
  ---------------------------------------------------
  alpha Z        PSCENC =       387.27776845
  Ewald energy   TEWEN  =     -5258.21292263
  -Hartree energ DENC   =     -2444.04656384
  -exchange      EXHF   =         0.00000000
  -V(xc)+E(xc)   XCENC  =       272.87032015
  PAW double counting   =      9213.77299129    -9090.94819886
  entropy T*S    EENTRO =        -0.02631822
  eigenvalues    EBANDS =      -608.86701404
  atomic energy  EATOM  =      7429.07371459
  Solvation  Ediel_sol  =         0.00000000
  ---------------------------------------------------
  free energy    TOTEN  =       -99.10622310 eV

  energy without entropy =      -99.07990488  energy(sigma->0) =      -99.09306399


--------------------------------------------------------------------------------------------------------




--------------------------------------- Iteration      1(  10)  ---------------------------------------


    POTLOK:  cpu time    0.0444: real time    0.0895
    SETDIJ:  cpu time    2.6413: real time    2.6414
    EDDIAG:  cpu time    0.1701: real time    0.1701
  RMM-DIIS:  cpu time    0.2379: real time    0.2380
    ORTHCH:  cpu time    0.0104: real time    0.0104
       DOS:  cpu time    0.0073: real time    0.0073
    CHARGE:  cpu time    0.1430: real time    0.1430
    MIXING:  cpu time    0.0045: real time    0.0045
    --------------------------------------------
      LOOP:  cpu time    3.2590: real time    3.3042

 eigenvalue-minimisations  :  2603
 total energy-change (2. order) : 0.2790049E-01  (-0.4289586E-01)
 number of electron     107.9999768 magnetization       7.9362996
 augmentation part       17.2376194 magnetization       6.7197906

 Broyden mixing:
  rms(total) = 0.17387E+01    rms(broyden)= 0.17387E+01
  rms(prec ) = 0.18081E+01
  weight for this iteration     100.00

 eigenvalues of (default mixing * dielectric matrix)
  average eigenvalue GAMMA=   1.6983
  5.2460  1.1210  0.7114  0.7114  0.7015

 Free energy of the ion-electron system (eV)
  ---------------------------------------------------
  alpha Z        PSCENC =       387.27776845
  Ewald energy   TEWEN  =     -5258.21292263
  -Hartree energ DENC   =     -2441.47532615
  -exchange      EXHF   =         0.00000000
  -V(xc)+E(xc)   XCENC  =       272.40015379
  PAW double counting   =      9619.19585378    -9497.91879931
  entropy T*S    EENTRO =        -0.02560691
  eigenvalues    EBANDS =      -609.39315823
  atomic energy  EATOM  =      7429.07371459
  Solvation  Ediel_sol  =         0.00000000
  ---------------------------------------------------
  free energy    TOTEN  =       -99.07832261 eV

  energy without entropy =      -99.05271571  energy(sigma->0) =      -99.06551916


--------------------------------------------------------------------------------------------------------




--------------------------------------- Iteration      1(  11)  ---------------------------------------


    POTLOK:  cpu time    0.0441: real time    0.0910
    SETDIJ:  cpu time    2.6417: real time    2.6418
    EDDIAG:  cpu time    0.1695: real time    0.1696
  RMM-DIIS:  cpu time    0.2401: real time    0.2401
    ORTHCH:  cpu time    0.0102: real time    0.0102
       DOS:  cpu time    0.0159: real time    0.0159
    CHARGE:  cpu time    0.1433: real time    0.1434
    MIXING:  cpu time    0.0058: real time    0.0058
    --------------------------------------------
      LOOP:  cpu time    3.2707: real time    3.3177

 eigenvalue-minimisations  :  2620
 total energy-change (2. order) :-0.5506684E+00  (-0.2456958E-01)
 number of electron     107.9999764 magnetization       7.2437588
 augmentation part       17.1922048 magnetization       6.5331413

 Broyden mixing:
  rms(total) = 0.13075E+01    rms(broyden)= 0.13075E+01
  rms(prec ) = 0.14040E+01
  weight for this iteration     100.00

 eigenvalues of (default mixing * dielectric matrix)
  average eigenvalue GAMMA=   1.6294
  5.2201  1.0946  1.0946  1.1225  0.6223  0.6223

 Free energy of the ion-electron system (eV)
  ---------------------------------------------------
  alpha Z        PSCENC =       387.27776845
  Ewald energy   TEWEN  =     -5258.21292263
  -Hartree energ DENC   =     -2437.88654095
  -exchange      EXHF   =         0.00000000
  -V(xc)+E(xc)   XCENC  =       271.94643583
  PAW double counting   =     10336.81746535   -10218.38081965
  entropy T*S    EENTRO =        -0.02139789
  eigenvalues    EBANDS =      -610.24269415
  atomic energy  EATOM  =      7429.07371459
  Solvation  Ediel_sol  =         0.00000000
  ---------------------------------------------------
  free energy    TOTEN  =       -99.62899104 eV

  energy without entropy =      -99.60759315  energy(sigma->0) =      -99.61829209


--------------------------------------------------------------------------------------------------------




--------------------------------------- Iteration      1(  12)  ---------------------------------------


    POTLOK:  cpu time    0.0424: real time    0.0888
    SETDIJ:  cpu time    2.6407: real time    2.6408
    EDDIAG:  cpu time    0.1719: real time    0.1719
  RMM-DIIS:  cpu time    0.2355: real time    0.2356
    ORTHCH:  cpu time    0.0105: real time    0.0105
       DOS:  cpu time    0.0060: real time    0.0060
    CHARGE:  cpu time    0.1481: real time    0.1481
    MIXING:  cpu time    0.0047: real time    0.0047
    --------------------------------------------
      LOOP:  cpu time    3.2599: real time    3.3063

 eigenvalue-minimisations  :  2606
 total energy-change (2. order) :-0.1142615E+00  (-0.2313722E-02)
 number of electron     107.9999763 magnetization       7.4074544
 augmentation part       17.2064570 magnetization       6.9011942

 Broyden mixing:
  rms(total) = 0.12501E+01    rms(broyden)= 0.12501E+01
  rms(prec ) = 0.13274E+01
  weight for this iteration     100.00

 eigenvalues of (default mixing * dielectric matrix)
  average eigenvalue GAMMA=   1.4243
  5.2732  1.0635  1.0635  1.1396  0.6314  0.6314  0.1674

 Free energy of the ion-electron system (eV)
  ---------------------------------------------------
  alpha Z        PSCENC =       387.27776845
  Ewald energy   TEWEN  =     -5258.21292263
  -Hartree energ DENC   =     -2436.53759104
  -exchange      EXHF   =         0.00000000
  -V(xc)+E(xc)   XCENC  =       271.80152185
  PAW double counting   =     10290.97866722   -10172.48753342
  entropy T*S    EENTRO =        -0.01388540
  eigenvalues    EBANDS =      -611.62299214
  atomic energy  EATOM  =      7429.07371459
  Solvation  Ediel_sol  =         0.00000000
  ---------------------------------------------------
  free energy    TOTEN  =       -99.74325251 eV

  energy without entropy =      -99.72936712  energy(sigma->0) =      -99.73630982


--------------------------------------------------------------------------------------------------------




--------------------------------------- Iteration      1(  13)  ---------------------------------------


    POTLOK:  cpu time    0.0407: real time    0.0885
    SETDIJ:  cpu time    2.6419: real time    2.6420
    EDDIAG:  cpu time    0.1704: real time    0.1704
  RMM-DIIS:  cpu time    0.2464: real time    0.2464
    ORTHCH:  cpu time    0.0103: real time    0.0103
       DOS:  cpu time    0.0044: real time    0.0044
    CHARGE:  cpu time    0.1491: real time    0.1491
    MIXING:  cpu time    0.0053: real time    0.0053
    --------------------------------------------
      LOOP:  cpu time    3.2683: real time    3.3163

 eigenvalue-minimisations  :  2654
 total energy-change (2. order) : 0.1282352E-02  (-0.7701698E-03)
 number of electron     107.9999762 magnetization       7.6874422
 augmentation part       17.1902641 magnetization       7.1345941

 Broyden mixing:
  rms(total) = 0.12958E+01    rms(broyden)= 0.12958E+01
  rms(prec ) = 0.13826E+01
  weight for this iteration     100.00

 eigenvalues of (default mixing * dielectric matrix)
  average eigenvalue GAMMA=   2.2094
  5.4794  3.8559  3.8559  1.1503  0.9799  0.9799  0.6870  0.6870

 Free energy of the ion-electron system (eV)
  ---------------------------------------------------
  alpha Z        PSCENC =       387.27776845
  Ewald energy   TEWEN  =     -5258.21292263
  -Hartree energ DENC   =     -2436.64564338
  -exchange      EXHF   =         0.00000000
  -V(xc)+E(xc)   XCENC  =       271.80226865
  PAW double counting   =     10363.00512165   -10244.73397676
  entropy T*S    EENTRO =        -0.01595404
  eigenvalues    EBANDS =      -611.29234669
  atomic energy  EATOM  =      7429.07371459
  Solvation  Ediel_sol  =         0.00000000
  ---------------------------------------------------
  free energy    TOTEN  =       -99.74197016 eV

  energy without entropy =      -99.72601612  energy(sigma->0) =      -99.73399314


--------------------------------------------------------------------------------------------------------




--------------------------------------- Iteration      1(  14)  ---------------------------------------


    POTLOK:  cpu time    0.0433: real time    0.0942
    SETDIJ:  cpu time    2.6431: real time    2.6431
    EDDIAG:  cpu time    0.1706: real time    0.1707
  RMM-DIIS:  cpu time    0.2339: real time    0.2339
    ORTHCH:  cpu time    0.0101: real time    0.0101
       DOS:  cpu time    0.0060: real time    0.0060
    CHARGE:  cpu time    0.1560: real time    0.1560
    MIXING:  cpu time    0.0049: real time    0.0049
    --------------------------------------------
      LOOP:  cpu time    3.2679: real time    3.3188

 eigenvalue-minimisations  :  2592
 total energy-change (2. order) : 0.1248074E+00  (-0.2937531E-02)
 number of electron     107.9999763 magnetization       6.5750682
 augmentation part       17.1863047 magnetization       5.9122717

 Broyden mixing:
  rms(total) = 0.12796E+01    rms(broyden)= 0.12796E+01
  rms(prec ) = 0.13507E+01
  weight for this iteration     100.00

 eigenvalues of (default mixing * dielectric matrix)
  average eigenvalue GAMMA=   2.5634
  6.3093  6.3093  5.3478  1.1191  1.1191  0.9133  0.6825  0.6825  0.5877

 Free energy of the ion-electron system (eV)
  ---------------------------------------------------
  alpha Z        PSCENC =       387.27776845
  Ewald energy   TEWEN  =     -5258.21292263
  -Hartree energ DENC   =     -2436.16555006
  -exchange      EXHF   =         0.00000000
  -V(xc)+E(xc)   XCENC  =       271.80501040
  PAW double counting   =     10486.59756154   -10368.69345259
  entropy T*S    EENTRO =        -0.02203631
  eigenvalues    EBANDS =      -611.27725610
  atomic energy  EATOM  =      7429.07371459
  Solvation  Ediel_sol  =         0.00000000
  ---------------------------------------------------
  free energy    TOTEN  =       -99.61716272 eV

  energy without entropy =      -99.59512641  energy(sigma->0) =      -99.60614456


--------------------------------------------------------------------------------------------------------




--------------------------------------- Iteration      1(  15)  ---------------------------------------


    POTLOK:  cpu time    0.0413: real time    0.0887
    SETDIJ:  cpu time    2.6400: real time    2.6401
    EDDIAG:  cpu time    0.1696: real time    0.1696
  RMM-DIIS:  cpu time    0.2368: real time    0.2368
    ORTHCH:  cpu time    0.0110: real time    0.0110
       DOS:  cpu time    0.0095: real time    0.0094
    CHARGE:  cpu time    0.1441: real time    0.1441
    MIXING:  cpu time    0.0069: real time    0.0069
    --------------------------------------------
      LOOP:  cpu time    3.2592: real time    3.3067

 eigenvalue-minimisations  :  2602
 total energy-change (2. order) :-0.1569426E+00  (-0.6707557E-02)
 number of electron     107.9999766 magnetization      -0.8102074
 augmentation part       17.2399546 magnetization      -1.3617082

 Broyden mixing:
  rms(total) = 0.11725E+01    rms(broyden)= 0.11725E+01
  rms(prec ) = 0.12099E+01
  weight for this iteration     100.00

 eigenvalues of (default mixing * dielectric matrix)
  average eigenvalue GAMMA=   2.8757
 10.8705  4.8489  3.6717  3.6717  1.2353  1.2353  0.6823  0.6823  1.0062  0.8526

 Free energy of the ion-electron system (eV)
  ---------------------------------------------------
  alpha Z        PSCENC =       387.27776845
  Ewald energy   TEWEN  =     -5258.21292263
  -Hartree energ DENC   =     -2434.87109120
  -exchange      EXHF   =         0.00000000
  -V(xc)+E(xc)   XCENC  =       271.67649806
  PAW double counting   =     10355.63132854   -10237.41480052
  entropy T*S    EENTRO =        -0.01704191
  eigenvalues    EBANDS =      -612.91755870
  atomic energy  EATOM  =      7429.07371459
  Solvation  Ediel_sol  =         0.00000000
  ---------------------------------------------------
  free energy    TOTEN  =       -99.77410533 eV

  energy without entropy =      -99.75706341  energy(sigma->0) =      -99.76558437


--------------------------------------------------------------------------------------------------------




--------------------------------------- Iteration      1(  16)  ---------------------------------------


    POTLOK:  cpu time    0.0415: real time    0.0943
    SETDIJ:  cpu time    2.6386: real time    2.6387
    EDDIAG:  cpu time    0.1705: real time    0.1705
  RMM-DIIS:  cpu time    0.2342: real time    0.2342
    ORTHCH:  cpu time    0.0105: real time    0.0105
       DOS:  cpu time    0.0054: real time    0.0054
    CHARGE:  cpu time    0.1422: real time    0.1422
    MIXING:  cpu time    0.0099: real time    0.0160
    --------------------------------------------
      LOOP:  cpu time    3.2529: real time    3.3118

 eigenvalue-minimisations  :  2594
 total energy-change (2. order) :-0.5864345E+00  (-0.6363578E-01)
 number of electron     107.9999768 magnetization      -0.8465859
 augmentation part       17.2572173 magnetization      -0.6080334

 Broyden mixing:
  rms(total) = 0.70880E+00    rms(broyden)= 0.70875E+00
  rms(prec ) = 0.71565E+00
  weight for this iteration     100.00

 eigenvalues of (default mixing * dielectric matrix)
  average eigenvalue GAMMA=   2.6164
 10.8733  4.8366  3.6760  3.6760  1.2350  1.2350  0.6823  0.6823  1.0072  0.8523
  0.0240

 Free energy of the ion-electron system (eV)
  ---------------------------------------------------
  alpha Z        PSCENC =       387.27776845
  Ewald energy   TEWEN  =     -5258.21292263
  -Hartree energ DENC   =     -2430.40374128
  -exchange      EXHF   =         0.00000000
  -V(xc)+E(xc)   XCENC  =       271.06370275
  PAW double counting   =     10009.47829877    -9890.86755420
  entropy T*S    EENTRO =        -0.02585551
  eigenvalues    EBANDS =      -617.74395080
  atomic energy  EATOM  =      7429.07371459
  Solvation  Ediel_sol  =         0.00000000
  ---------------------------------------------------
  free energy    TOTEN  =      -100.36053986 eV

  energy without entropy =     -100.33468434  energy(sigma->0) =     -100.34761210


--------------------------------------------------------------------------------------------------------




--------------------------------------- Iteration      1(  17)  ---------------------------------------


    POTLOK:  cpu time    0.0412: real time    0.0893
    SETDIJ:  cpu time    2.6385: real time    2.6386
    EDDIAG:  cpu time    0.1690: real time    0.1691
  RMM-DIIS:  cpu time    0.2405: real time    0.2405
    ORTHCH:  cpu time    0.0104: real time    0.0104
       DOS:  cpu time    0.0071: real time    0.0071
    CHARGE:  cpu time    0.1432: real time    0.1432
    MIXING:  cpu time    0.0083: real time    0.0090
    --------------------------------------------
      LOOP:  cpu time    3.2582: real time    3.3071

 eigenvalue-minimisations  :  2624
 total energy-change (2. order) :-0.2592924E-02  (-0.2226131E-02)
 number of electron     107.9999768 magnetization      -0.7585802
 augmentation part       17.2687383 magnetization      -0.5004061

 Broyden mixing:
  rms(total) = 0.71471E+00    rms(broyden)= 0.71471E+00
  rms(prec ) = 0.72153E+00
  weight for this iteration     100.00

 eigenvalues of (default mixing * dielectric matrix)
  average eigenvalue GAMMA=   2.3986
 10.7480  4.8242  3.6908  3.6908  1.2357  1.2357  1.0075  0.8524  0.6823  0.6823
  0.0669  0.0669

 Free energy of the ion-electron system (eV)
  ---------------------------------------------------
  alpha Z        PSCENC =       387.27776845
  Ewald energy   TEWEN  =     -5258.21292263
  -Hartree energ DENC   =     -2430.34622858
  -exchange      EXHF   =         0.00000000
  -V(xc)+E(xc)   XCENC  =       271.06235969
  PAW double counting   =     10005.67957864    -9887.05942973
  entropy T*S    EENTRO =        -0.02551304
  eigenvalues    EBANDS =      -617.81246017
  atomic energy  EATOM  =      7429.07371459
  Solvation  Ediel_sol  =         0.00000000
  ---------------------------------------------------
  free energy    TOTEN  =      -100.36313278 eV

  energy without entropy =     -100.33761974  energy(sigma->0) =     -100.35037626


--------------------------------------------------------------------------------------------------------




--------------------------------------- Iteration      1(  18)  ---------------------------------------


    POTLOK:  cpu time    0.0437: real time    0.0893
    SETDIJ:  cpu time    2.6382: real time    2.6383
    EDDIAG:  cpu time    0.1697: real time    0.1697
  RMM-DIIS:  cpu time    0.2504: real time    0.2504
    ORTHCH:  cpu time    0.0103: real time    0.0103
       DOS:  cpu time    0.0043: real time    0.0043
    CHARGE:  cpu time    0.1412: real time    0.1412
    MIXING:  cpu time    0.0084: real time    0.0091
    --------------------------------------------
      LOOP:  cpu time    3.2662: real time    3.3126

 eigenvalue-minimisations  :  2735
 total energy-change (2. order) :-0.1588022E-02  (-0.2641418E-03)
 number of electron     107.9999768 magnetization      -0.8778041
 augmentation part       17.2688028 magnetization      -0.6500543

 Broyden mixing:
  rms(total) = 0.71885E+00    rms(broyden)= 0.71885E+00
  rms(prec ) = 0.72588E+00
  weight for this iteration     100.00

 eigenvalues of (default mixing * dielectric matrix)
  average eigenvalue GAMMA=   2.2625
 10.8672  4.8098  3.6843  3.6843  1.2337  1.2337  1.0113  0.8511  0.6823  0.6823
  0.2512  0.2104  0.2104

 Free energy of the ion-electron system (eV)
  ---------------------------------------------------
  alpha Z        PSCENC =       387.27776845
  Ewald energy   TEWEN  =     -5258.21292263
  -Hartree energ DENC   =     -2430.31531653
  -exchange      EXHF   =         0.00000000
  -V(xc)+E(xc)   XCENC  =       271.06276599
  PAW double counting   =     10004.60711465    -9885.97541918
  entropy T*S    EENTRO =        -0.02591352
  eigenvalues    EBANDS =      -617.85651263
  atomic energy  EATOM  =      7429.07371459
  Solvation  Ediel_sol  =         0.00000000
  ---------------------------------------------------
  free energy    TOTEN  =      -100.36472080 eV

  energy without entropy =     -100.33880728  energy(sigma->0) =     -100.35176404


--------------------------------------------------------------------------------------------------------




--------------------------------------- Iteration      1(  19)  ---------------------------------------


    POTLOK:  cpu time    0.0398: real time    0.0901
    SETDIJ:  cpu time    2.6392: real time    2.6393
    EDDIAG:  cpu time    0.1688: real time    0.1688
  RMM-DIIS:  cpu time    0.2360: real time    0.2360
    ORTHCH:  cpu time    0.0102: real time    0.0102
       DOS:  cpu time    0.0048: real time    0.0048
    CHARGE:  cpu time    0.1418: real time    0.1418
    MIXING:  cpu time    0.0084: real time    0.0089
    --------------------------------------------
      LOOP:  cpu time    3.2490: real time    3.2999

 eigenvalue-minimisations  :  2611
 total energy-change (2. order) :-0.4872871E-03  (-0.6100860E-04)
 number of electron     107.9999768 magnetization      -0.1917077
 augmentation part       17.2750340 magnetization       0.1001781

 Broyden mixing:
  rms(total) = 0.74197E+00    rms(broyden)= 0.74197E+00
  rms(prec ) = 0.74910E+00
  weight for this iteration     100.00

 eigenvalues of (default mixing * dielectric matrix)
  average eigenvalue GAMMA=   2.1728
 10.8498  4.7418  3.5968  3.5968  1.2495  1.2495  0.9609  0.8619  0.6825  0.6825
  0.5056  0.5056  0.4680  0.4680

 Free energy of the ion-electron system (eV)
  ---------------------------------------------------
  alpha Z        PSCENC =       387.27776845
  Ewald energy   TEWEN  =     -5258.21292263
  -Hartree energ DENC   =     -2430.36970842
  -exchange      EXHF   =         0.00000000
  -V(xc)+E(xc)   XCENC  =       271.07230876
  PAW double counting   =     10001.96851834    -9883.33310869
  entropy T*S    EENTRO =        -0.02485590
  eigenvalues    EBANDS =      -617.81692259
  atomic energy  EATOM  =      7429.07371459
  Solvation  Ediel_sol  =         0.00000000
  ---------------------------------------------------
  free energy    TOTEN  =      -100.36520809 eV

  energy without entropy =     -100.34035219  energy(sigma->0) =     -100.35278014


--------------------------------------------------------------------------------------------------------




--------------------------------------- Iteration      1(  20)  ---------------------------------------


    POTLOK:  cpu time    0.0404: real time    0.0900
    SETDIJ:  cpu time    2.6394: real time    2.6394
    EDDIAG:  cpu time    0.1702: real time    0.1702
  RMM-DIIS:  cpu time    0.2348: real time    0.2348
    ORTHCH:  cpu time    0.0106: real time    0.0106
       DOS:  cpu time    0.0058: real time    0.0058
    CHARGE:  cpu time    0.1428: real time    0.1428
    MIXING:  cpu time    0.0089: real time    0.0097
    --------------------------------------------
      LOOP:  cpu time    3.2528: real time    3.3033

 eigenvalue-minimisations  :  2592
 total energy-change (2. order) :-0.5731628E-02  (-0.1331368E-02)
 number of electron     107.9999767 magnetization      -0.5001840
 augmentation part       17.2260549 magnetization      -0.5957818

 Broyden mixing:
  rms(total) = 0.62735E+00    rms(broyden)= 0.62735E+00
  rms(prec ) = 0.64183E+00
  weight for this iteration     100.00

 eigenvalues of (default mixing * dielectric matrix)
  average eigenvalue GAMMA=   2.1114
 11.2251  4.7766  3.1464  3.1464  1.2487  1.2487  0.9720  0.9720  0.9275  0.8748
  0.6825  0.6825  0.6309  0.6309  0.5065

 Free energy of the ion-electron system (eV)
  ---------------------------------------------------
  alpha Z        PSCENC =       387.27776845
  Ewald energy   TEWEN  =     -5258.21292263
  -Hartree energ DENC   =     -2430.83168121
  -exchange      EXHF   =         0.00000000
  -V(xc)+E(xc)   XCENC  =       271.05061220
  PAW double counting   =     10081.78819037    -9963.37960406
  entropy T*S    EENTRO =        -0.02421152
  eigenvalues    EBANDS =      -617.11280591
  atomic energy  EATOM  =      7429.07371459
  Solvation  Ediel_sol  =         0.00000000
  ---------------------------------------------------
  free energy    TOTEN  =      -100.37093972 eV

  energy without entropy =     -100.34672820  energy(sigma->0) =     -100.35883396


--------------------------------------------------------------------------------------------------------




--------------------------------------- Iteration      1(  21)  ---------------------------------------


    POTLOK:  cpu time    0.2943: real time    0.3405
    SETDIJ:  cpu time    2.6387: real time    2.6388
    EDDIAG:  cpu time    0.1688: real time    0.1688
  RMM-DIIS:  cpu time    0.2365: real time    0.2365
    ORTHCH:  cpu time    0.0105: real time    0.0105
       DOS:  cpu time    0.0060: real time    0.0060
    CHARGE:  cpu time    0.1439: real time    0.1439
    MIXING:  cpu time    0.0112: real time    0.0130
    --------------------------------------------
      LOOP:  cpu time    3.5099: real time    3.5580

 eigenvalue-minimisations  :  2599
 total energy-change (2. order) : 0.1831749E-02  (-0.4944259E-03)
 number of electron     107.9999767 magnetization      -0.1968195
 augmentation part       17.2273482 magnetization      -0.1313902

 Broyden mixing:
  rms(total) = 0.64988E+00    rms(broyden)= 0.64988E+00
  rms(prec ) = 0.66203E+00
  weight for this iteration     100.00

 eigenvalues of (default mixing * dielectric matrix)
  average eigenvalue GAMMA=   2.0520
 11.4929  4.7528  2.3913  2.3913  1.8341  1.8341  1.2537  1.2537  0.6849  0.6849
  0.8935  0.8935  0.6825  0.6825  0.5530  0.5530

 Free energy of the ion-electron system (eV)
  ---------------------------------------------------
  alpha Z        PSCENC =       387.27776845
  Ewald energy   TEWEN  =     -5258.21292263
  -Hartree energ DENC   =     -2431.77172237
  -exchange      EXHF   =         0.00000000
  -V(xc)+E(xc)   XCENC  =       271.10195437
  PAW double counting   =     10072.68543836    -9954.21929980
  entropy T*S    EENTRO =        -0.02568398
  eigenvalues    EBANDS =      -616.27835498
  atomic energy  EATOM  =      7429.07371459
  Solvation  Ediel_sol  =         0.00000000
  ---------------------------------------------------
  free energy    TOTEN  =      -100.36910797 eV

  energy without entropy =     -100.34342399  energy(sigma->0) =     -100.35626598


--------------------------------------------------------------------------------------------------------




--------------------------------------- Iteration      1(  22)  ---------------------------------------


    POTLOK:  cpu time    1.1988: real time    1.2490
    SETDIJ:  cpu time    2.6370: real time    2.6371
    EDDIAG:  cpu time    0.1694: real time    0.1694
  RMM-DIIS:  cpu time    0.2342: real time    0.2343
    ORTHCH:  cpu time    0.0106: real time    0.0106
       DOS:  cpu time    0.0054: real time    0.0054
    CHARGE:  cpu time    0.1425: real time    0.1426
    MIXING:  cpu time    0.0095: real time    0.0102
    --------------------------------------------
      LOOP:  cpu time    4.4075: real time    4.4585

 eigenvalue-minimisations  :  2596
 total energy-change (2. order) :-0.1743649E-01  (-0.1205961E-02)
 number of electron     107.9999766 magnetization      -0.2171950
 augmentation part       17.1801645 magnetization      -0.3090741

 Broyden mixing:
  rms(total) = 0.69224E+00    rms(broyden)= 0.69224E+00
  rms(prec ) = 0.71533E+00
  weight for this iteration     100.00

 eigenvalues of (default mixing * dielectric matrix)
  average eigenvalue GAMMA=   2.0445
 11.8218  4.6796  2.4933  2.4933  2.2399  2.2399  1.2595  1.2595  0.6853  0.6853
  0.8878  0.8878  0.6827  0.6827  0.6288  0.6288  0.4999

 Free energy of the ion-electron system (eV)
  ---------------------------------------------------
  alpha Z        PSCENC =       387.27776845
  Ewald energy   TEWEN  =     -5258.21292263
  -Hartree energ DENC   =     -2433.11919499
  -exchange      EXHF   =         0.00000000
  -V(xc)+E(xc)   XCENC  =       271.13488547
  PAW double counting   =     10150.65485641   -10032.39161588
  entropy T*S    EENTRO =        -0.02029362
  eigenvalues    EBANDS =      -614.78374227
  atomic energy  EATOM  =      7429.07371459
  Solvation  Ediel_sol  =         0.00000000
  ---------------------------------------------------
  free energy    TOTEN  =      -100.38654446 eV

  energy without entropy =     -100.36625084  energy(sigma->0) =     -100.37639765


--------------------------------------------------------------------------------------------------------




--------------------------------------- Iteration      1(  23)  ---------------------------------------


    POTLOK:  cpu time    0.0396: real time    0.0872
    SETDIJ:  cpu time    2.6384: real time    2.6385
    EDDIAG:  cpu time    0.1699: real time    0.1699
  RMM-DIIS:  cpu time    0.2411: real time    0.2411
    ORTHCH:  cpu time    0.0103: real time    0.0103
       DOS:  cpu time    0.0084: real time    0.0084
    CHARGE:  cpu time    0.1448: real time    0.1448
    MIXING:  cpu time    0.0063: real time    0.0063
    --------------------------------------------
      LOOP:  cpu time    3.2589: real time    3.3066

 eigenvalue-minimisations  :  2666
 total energy-change (2. order) :-0.9524710E-02  (-0.4560982E-03)
 number of electron     107.9999766 magnetization      -0.2207137
 augmentation part       17.1688574 magnetization      -0.3082875

 Broyden mixing:
  rms(total) = 0.77224E+00    rms(broyden)= 0.77224E+00
  rms(prec ) = 0.79746E+00
  weight for this iteration     100.00

 eigenvalues of (default mixing * dielectric matrix)
  average eigenvalue GAMMA=   2.2423
 11.8608  4.7416  3.0996  3.0996  3.4409  3.4409  0.6723  0.6723  1.2870  1.2439
  1.2439  1.0440  1.0440  0.6825  0.6825  0.8441  0.6310  0.6310

 Free energy of the ion-electron system (eV)
  ---------------------------------------------------
  alpha Z        PSCENC =       387.27776845
  Ewald energy   TEWEN  =     -5258.21292263
  -Hartree energ DENC   =     -2433.46638212
  -exchange      EXHF   =         0.00000000
  -V(xc)+E(xc)   XCENC  =       271.14854695
  PAW double counting   =     10182.79681759   -10064.64020130
  entropy T*S    EENTRO =        -0.01880415
  eigenvalues    EBANDS =      -614.35460655
  atomic energy  EATOM  =      7429.07371459
  Solvation  Ediel_sol  =         0.00000000
  ---------------------------------------------------
  free energy    TOTEN  =      -100.39606917 eV

  energy without entropy =     -100.37726502  energy(sigma->0) =     -100.38666710


--------------------------------------------------------------------------------------------------------




--------------------------------------- Iteration      1(  24)  ---------------------------------------


    POTLOK:  cpu time    0.0395: real time    0.0862
    SETDIJ:  cpu time    2.6386: real time    2.6387
    EDDIAG:  cpu time    0.1690: real time    0.1690
  RMM-DIIS:  cpu time    0.2353: real time    0.2353
    ORTHCH:  cpu time    0.0113: real time    0.0113
       DOS:  cpu time    0.0131: real time    0.0131
    CHARGE:  cpu time    0.1479: real time    0.1479
    MIXING:  cpu time    0.0069: real time    0.0069
    --------------------------------------------
      LOOP:  cpu time    3.2615: real time    3.3083

 eigenvalue-minimisations  :  2592
 total energy-change (2. order) : 0.2552067E-01  (-0.1412544E-02)
 number of electron     107.9999768 magnetization       0.3946426
 augmentation part       17.2216714 magnetization       0.3361265

 Broyden mixing:
  rms(total) = 0.76604E+00    rms(broyden)= 0.76603E+00
  rms(prec ) = 0.77215E+00
  weight for this iteration     100.00

 eigenvalues of (default mixing * dielectric matrix)
  average eigenvalue GAMMA=   2.1803
 11.4692  5.3013  3.6463  3.6463  3.0394  2.1594  2.1594  0.6718  0.6718  1.2613
  1.0648  1.0648  0.8981  0.8981  0.6824  0.6824  0.8342  0.6368  0.6368

 Free energy of the ion-electron system (eV)
  ---------------------------------------------------
  alpha Z        PSCENC =       387.27776845
  Ewald energy   TEWEN  =     -5258.21292263
  -Hartree energ DENC   =     -2432.26811359
  -exchange      EXHF   =         0.00000000
  -V(xc)+E(xc)   XCENC  =       271.16318671
  PAW double counting   =     10164.31623689   -10046.21507651
  entropy T*S    EENTRO =        -0.02691397
  eigenvalues    EBANDS =      -615.47842844
  atomic energy  EATOM  =      7429.07371459
  Solvation  Ediel_sol  =         0.00000000
  ---------------------------------------------------
  free energy    TOTEN  =      -100.37054850 eV

  energy without entropy =     -100.34363453  energy(sigma->0) =     -100.35709151


--------------------------------------------------------------------------------------------------------




--------------------------------------- Iteration      1(  25)  ---------------------------------------


    POTLOK:  cpu time    0.0399: real time    0.0895
    SETDIJ:  cpu time    2.6388: real time    2.6389
    EDDIAG:  cpu time    0.1714: real time    0.1714
  RMM-DIIS:  cpu time    0.2326: real time    0.2326
    ORTHCH:  cpu time    0.0104: real time    0.0104
       DOS:  cpu time    0.0057: real time    0.0057
    CHARGE:  cpu time    0.1431: real time    0.1431
    MIXING:  cpu time    0.0096: real time    0.0101
    --------------------------------------------
      LOOP:  cpu time    3.2515: real time    3.3017

 eigenvalue-minimisations  :  2593
 total energy-change (2. order) :-0.4226368E-02  (-0.3564683E-03)
 number of electron     107.9999768 magnetization       0.3130042
 augmentation part       17.2189358 magnetization      -0.0390403

 Broyden mixing:
  rms(total) = 0.75462E+00    rms(broyden)= 0.75462E+00
  rms(prec ) = 0.75965E+00
  weight for this iteration     100.00

 eigenvalues of (default mixing * dielectric matrix)
  average eigenvalue GAMMA=   2.2120
 11.0884  5.2919  4.3837  3.3436  3.3436  2.8714  2.8714  0.6720  0.6720  1.3196
  1.0324  1.0324  0.9870  0.9870  0.6824  0.6824  0.8520  0.8520  0.6370  0.6370

 Free energy of the ion-electron system (eV)
  ---------------------------------------------------
  alpha Z        PSCENC =       387.27776845
  Ewald energy   TEWEN  =     -5258.21292263
  -Hartree energ DENC   =     -2432.49067211
  -exchange      EXHF   =         0.00000000
  -V(xc)+E(xc)   XCENC  =       271.18440997
[...]
      9     -16.4061      1.00000
     10     -16.4061      1.00000
     11     -15.8365      1.00000
     12     -15.8365      1.00000
     13      -7.5837      1.00000
     14      -7.5837      1.00000
     15      -7.4824      1.00000
     16      -7.4824      1.00000
     17      -7.1213      1.00000
     18      -7.1213      1.00000
     19      -5.3797      1.00000
     20      -5.3797      1.00000
     21      -5.2519      1.00000
     22      -5.2519      1.00000
     23      -5.0862      1.00000
     24      -5.0862      1.00000
     25      -4.8356      1.00000
     26      -4.8356      1.00000
     27      -4.7683      1.00000
     28      -4.7683      1.00000
     29      -4.5515      1.00000
     30      -4.5515      1.00000
     31      -4.0478      1.00000
     32      -4.0478      1.00000
     33      -3.1577      1.00000
     34      -3.1577      1.00000
     35      -2.1472      1.00000
     36      -2.1472      1.00000
     37      -0.9190      1.00000
     38      -0.9190      1.00000
     39      -0.5558      1.00000
     40      -0.5558      1.00000
     41       0.1937      1.00000
     42       0.1937      1.00000
     43       0.2693      1.00000
     44       0.2693      1.00000
     45       0.4042      1.00000
     46       0.4042      1.00000
     47       0.7027      1.00000
     48       0.7027      1.00000
     49       1.4470      1.00000
     50       1.4470      1.00000
     51       2.0687      0.00000
     52       2.0687      0.00000
     53       2.2628      0.00000
     54       2.2628      0.00000
     55       2.2753      0.00000
     56       2.2753      0.00000
     57       2.6569      0.00000
     58       2.6569      0.00000
     59       2.8334      0.00000
     60       2.8334      0.00000
     61       3.1944      0.00000
     62       3.1944      0.00000
     63       6.7074      0.00000
     64       6.7074      0.00000
     65       7.1726      0.00000
     66       7.1726      0.00000
     67       8.9055      0.00000
     68       8.9055      0.00000
     69      10.8619      0.00000
     70      10.8619      0.00000
     71      11.1850      0.00000
     72      11.1850      0.00000

 k-point     9 :       0.5000    0.5000    0.4000
  band No.  band energies     occupation 
      1     -16.7669      1.00000
      2     -16.7669      1.00000
      3     -16.7669      1.00000
      4     -16.7669      1.00000
      5     -16.5046      1.00000
      6     -16.5046      1.00000
      7     -16.5046      1.00000
      8     -16.5046      1.00000
      9     -16.3144      1.00000
     10     -16.3144      1.00000
     11     -16.3144      1.00000
     12     -16.3144      1.00000
     13      -7.4826      1.00000
     14      -7.4826      1.00000
     15      -7.4826      1.00000
     16      -7.4826      1.00000
     17      -5.4999      1.00000
     18      -5.4999      1.00000
     19      -5.4999      1.00000
     20      -5.4999      1.00000
     21      -4.9775      1.00000
     22      -4.9775      1.00000
     23      -4.9775      1.00000
     24      -4.9775      1.00000
     25      -4.7880      1.00000
     26      -4.7880      1.00000
     27      -4.7880      1.00000
     28      -4.7880      1.00000
     29      -4.7456      1.00000
     30      -4.7456      1.00000
     31      -4.7456      1.00000
     32      -4.7456      1.00000
     33      -3.9071      1.00000
     34      -3.9071      1.00000
     35      -3.9071      1.00000
     36      -3.9071      1.00000
     37      -0.0120      1.00000
     38      -0.0120      1.00000
     39      -0.0120      1.00000
     40      -0.0120      1.00000
     41       0.2664      1.00000
     42       0.2664      1.00000
     43       0.2664      1.00000
     44       0.2664      1.00000
     45       0.4021      1.00000
     46       0.4021      1.00000
     47       0.4021      1.00000
     48       0.4021      1.00000
     49       1.7658      0.77381
     50       1.7658      0.77381
     51       1.7658      0.77381
     52       1.7658      0.77381
     53       2.2212      0.00000
     54       2.2212      0.00000
     55       2.2212      0.00000
     56       2.2212      0.00000
     57       2.3361      0.00000
     58       2.3361      0.00000
     59       2.3361      0.00000
     60       2.3361      0.00000
     61       6.0048      0.00000
     62       6.0048      0.00000
     63       6.0048      0.00000
     64       6.0048      0.00000
     65       7.5245      0.00000
     66       7.5245      0.00000
     67       7.5245      0.00000
     68       7.5245      0.00000
     69      11.0559      0.00000
     70      11.0559      0.00000
     71      11.0559      0.00000
     72      11.0559      0.00000


--------------------------------------------------------------------------------------------------------


 soft charge-density along one line, spin component           1
         0         1         2         3         4         5         6         7         8         9
 total charge-density along one line
 
 soft charge-density along one line, spin component           2
         0         1         2         3         4         5         6         7         8         9
 total charge-density along one line
 
 pseudopotential strength for first ion, spin component:           1
 12.836 -15.670  -0.000  -0.000  -0.000   0.000   0.000   0.000
-15.670  19.153   0.000   0.000   0.000  -0.000  -0.000  -0.000
 -0.000   0.000  -9.139  -0.000  -0.000  11.112   0.000   0.000
 -0.000   0.000  -0.000  -9.269  -0.000   0.000  11.284   0.000
 -0.000   0.000  -0.000  -0.000  -9.139   0.000   0.000  11.112
  0.000  -0.000  11.112   0.000   0.000 -13.388  -0.000  -0.000
  0.000  -0.000   0.000  11.284   0.000  -0.000 -13.616  -0.000
  0.000  -0.000   0.000   0.000  11.112  -0.000  -0.000 -13.388
 pseudopotential strength for first ion, spin component:           2
 12.835 -15.669  -0.000  -0.000  -0.000   0.000   0.000   0.000
-15.669  19.152   0.000   0.000   0.000  -0.000  -0.000  -0.000
 -0.000   0.000  -9.136  -0.000  -0.000  11.109   0.000   0.000
 -0.000   0.000  -0.000  -9.271   0.000   0.000  11.286  -0.000
 -0.000   0.000  -0.000   0.000  -9.136   0.000  -0.000  11.109
  0.000  -0.000  11.109   0.000   0.000 -13.384  -0.000  -0.000
  0.000  -0.000   0.000  11.286  -0.000  -0.000 -13.620   0.000
  0.000  -0.000   0.000  -0.000  11.109  -0.000   0.000 -13.384
 total augmentation occupancy for first ion, spin component:           1
  2.488   0.298   0.000  -0.000   0.000  -0.000  -0.000  -0.000
  0.298   0.070   0.000   0.000   0.000  -0.000  -0.000  -0.000
  0.000   0.000   1.891   0.000   0.000   0.133   0.000   0.000
  0.000  -0.000   0.000   2.166   0.000   0.000   0.348   0.000
  0.000   0.000   0.000   0.000   1.891   0.000   0.000   0.133
 -0.000  -0.000   0.133   0.000   0.000   0.018   0.000   0.000
 -0.000  -0.000   0.000   0.348   0.000   0.000   0.063   0.000
 -0.000  -0.000   0.000   0.000   0.133   0.000   0.000   0.018
 total augmentation occupancy for first ion, spin component:           2
 -0.001   0.000   0.000   0.000   0.000   0.000   0.000   0.000
  0.000   0.006   0.000   0.000   0.000  -0.000  -0.000  -0.000
  0.000   0.000  -0.001  -0.000  -0.000  -0.000   0.000   0.000
  0.000   0.000   0.000  -0.004   0.000   0.000   0.000   0.000
  0.000   0.000  -0.000   0.000  -0.001   0.000   0.000  -0.000
  0.000  -0.000  -0.000  -0.000   0.000  -0.000   0.000   0.000
  0.000   0.000   0.000   0.000   0.000   0.000   0.000   0.000
  0.000  -0.000   0.000   0.000  -0.000   0.000   0.000  -0.000


------------------------ aborting loop because EDIFF is reached ----------------------------------------


 


 total charge     
 
# of ion       s       p       d       tot
------------------------------------------
    1        1.566   3.421   0.000   4.987
    2        1.566   3.421   0.000   4.987
    3        1.566   3.421   0.000   4.987
    4        1.566   3.421   0.000   4.987
    5        1.567   3.542   0.000   5.108
    6        1.567   3.542   0.000   5.108
    7        1.551   3.321   0.000   4.872
    8        1.551   3.321   0.000   4.872
    9        1.567   3.542   0.000   5.108
   10        1.567   3.542   0.000   5.108
   11        1.551   3.321   0.000   4.872
   12        1.551   3.321   0.000   4.872
   13        0.672   1.088   6.627   8.388
   14        0.672   1.088   6.627   8.388
   15        0.672   1.088   6.627   8.388
   16        0.672   1.088   6.627   8.388
--------------------------------------------------
tot         21.423  45.489  26.510  93.421
 


 magnetization (x)
 
# of ion       s       p       d       tot
------------------------------------------
    1        0.004  -0.004   0.000  -0.000
    2        0.004  -0.004   0.000  -0.000
    3        0.004  -0.004   0.000  -0.000
    4        0.004  -0.004   0.000  -0.000
    5        0.004   0.018   0.000   0.021
    6        0.004   0.018   0.000   0.021
    7        0.006   0.017   0.000   0.023
    8        0.006   0.017   0.000   0.023
    9        0.004   0.018   0.000   0.021
   10        0.004   0.018   0.000   0.021
   11        0.006   0.017   0.000   0.023
   12        0.006   0.017   0.000   0.023
   13        0.000  -0.000   0.161   0.161
   14        0.000  -0.000   0.161   0.161
   15        0.000  -0.000   0.161   0.161
   16        0.000  -0.000   0.161   0.161
--------------------------------------------------
tot          0.056   0.121   0.645   0.821
 
    CHARGE:  cpu time    0.1410: real time    0.1410
    FORLOC:  cpu time    0.0022: real time    0.0031
    FORNL :  cpu time    0.1464: real time    0.1487
    STRESS:  cpu time    0.4443: real time    0.4539
    FORCOR:  cpu time    0.0368: real time    0.0411
    FORHAR:  cpu time    0.0056: real time    0.0088
    MIXING:  cpu time    0.0132: real time    0.0132
    OFIELD:  cpu time    0.0002: real time    0.0011

  FORCE on cell =-STRESS in cart. coord.  units (eV):
  Direction    XX          YY          ZZ          XY          YZ          ZX
  --------------------------------------------------------------------------------------
  Alpha Z   387.27777   387.27777   387.27777
  Ewald   -1789.03273 -1789.03273 -1680.16429    -0.00000    -0.00000    -0.00000
  Hartree   800.39842   800.39842   832.81591    -0.00000    -0.00000    -0.00000
  E(xc)    -521.64561  -521.64561  -521.46272     0.00000    -0.00000     0.00000
  Local    -855.24405  -855.24405  -981.32772    -0.00000     0.00000    -0.00000
  n-local  -270.63226  -289.00860  -279.92281     0.00000     0.00000     0.00000
  augment   232.57271   232.57271   228.71948     0.00000     0.00000    -0.00000
  Kinetic  2021.90808  2029.12612  2014.07538     0.00000     0.00000    -0.00000
  Fock        0.00000     0.00000     0.00000     0.00000     0.00000     0.00000
  -------------------------------------------------------------------------------------
  Total       0.02318     0.02318     0.01099     0.00000     0.00000     0.00000
  in kB       0.16969     0.16969     0.08046     0.00000     0.00000     0.00000
  external pressure =        0.14 kB  Pullay stress =        0.00 kB


 VOLUME and BASIS-vectors are now :
 -----------------------------------------------------------------------------
  energy-cutoff  :      600.00
  volume of cell :      218.82
      direct lattice vectors                 reciprocal lattice vectors
     7.621690000  0.000000000  0.000000000     0.131204497  0.000000000  0.000000000
     0.000000000  7.621690000  0.000000000     0.000000000  0.131204497  0.000000000
     0.000000000  0.000000000  3.766950000     0.000000000  0.000000000  0.265466757

  length of vectors
     7.621690000  7.621690000  3.766950000     0.131204497  0.131204497  0.265466757


 FORCES acting on ions
    electron-ion (+dipol)            ewald-force                    non-local-force                 convergence-correction
 -----------------------------------------------------------------------------------------------
   -.102E-01 -.102E-01 0.206E-06   0.989E-02 0.989E-02 -.970E-14   0.460E-03 0.460E-03 0.132E-23   0.734E-05 0.734E-05 -.713E-13
   0.102E-01 0.102E-01 -.206E-06   -.989E-02 -.989E-02 -.941E-14   -.460E-03 -.460E-03 0.157E-23   -.734E-05 -.734E-05 -.889E-13
   -.102E-01 0.102E-01 -.236E-12   0.989E-02 -.989E-02 -.977E-14   0.460E-03 -.460E-03 0.731E-24   0.734E-05 -.734E-05 -.101E-12
   0.102E-01 -.102E-01 0.919E-11   -.989E-02 0.989E-02 -.969E-14   -.460E-03 0.460E-03 -.107E-23   -.734E-05 0.734E-05 -.773E-13
   -.459E-01 0.157E-03 -.165E-06   0.554E-01 -.169E-05 0.238E-14   -.633E-02 0.448E-04 -.513E-24   -.280E-04 -.196E-03 0.875E-13
   0.459E-01 -.157E-03 0.165E-06   -.554E-01 0.169E-05 0.229E-14   0.633E-02 -.448E-04 0.558E-24   0.280E-04 0.196E-03 0.778E-13
   0.157E-03 0.459E-01 0.165E-06   -.169E-05 -.554E-01 0.364E-14   0.448E-04 0.633E-02 -.421E-24   -.196E-03 0.280E-04 0.886E-13
   -.157E-03 -.459E-01 -.165E-06   0.169E-05 0.554E-01 0.366E-14   -.448E-04 -.633E-02 -.858E-24   0.196E-03 -.280E-04 0.371E-13
   0.459E-01 0.157E-03 0.165E-06   -.554E-01 -.169E-05 0.149E-14   0.633E-02 0.448E-04 0.517E-24   0.280E-04 -.196E-03 0.104E-12
   -.459E-01 -.157E-03 -.165E-06   0.554E-01 0.169E-05 0.151E-14   -.633E-02 -.448E-04 -.430E-24   -.280E-04 0.196E-03 0.105E-12
   -.157E-03 0.459E-01 0.165E-06   0.169E-05 -.554E-01 0.256E-14   -.448E-04 0.633E-02 0.139E-23   0.196E-03 0.280E-04 0.538E-13
   0.157E-03 -.459E-01 -.165E-06   -.169E-05 0.554E-01 0.306E-14   0.448E-04 -.633E-02 0.542E-24   -.196E-03 -.280E-04 0.755E-13
   -.487E-01 -.487E-01 -.574E-09   0.486E-01 0.486E-01 0.752E-14   0.262E-02 0.262E-02 -.554E-23   -.170E-04 -.170E-04 0.118E-12
   0.487E-01 0.487E-01 0.576E-09   -.486E-01 -.486E-01 0.751E-14   -.262E-02 -.262E-02 -.492E-23   0.170E-04 0.170E-04 0.134E-12
   -.487E-01 0.487E-01 0.150E-11   0.486E-01 -.486E-01 0.920E-14   0.262E-02 -.262E-02 0.429E-23   -.170E-04 0.170E-04 0.136E-12
   0.487E-01 -.487E-01 -.360E-11   -.486E-01 0.486E-01 0.921E-14   -.262E-02 0.262E-02 0.436E-23   0.170E-04 -.170E-04 0.128E-12
 -----------------------------------------------------------------------------------------------
   0.392E-11 -.361E-11 0.153E-10   -.680E-13 0.328E-13 0.155E-13   0.867E-18 0.000E+00 0.152E-23   -.437E-12 0.346E-12 0.806E-12
 
 
 POSITION                                       TOTAL-FORCE (eV/Angst)
 -----------------------------------------------------------------------------------
      5.71634      1.90550      1.88348         0.000136      0.000136     -0.000000
      1.90535      5.71619      1.88348        -0.000136     -0.000136      0.000000
      1.90550      1.90535      1.88348         0.000136     -0.000136      0.000000
      5.71619      5.71634      1.88348        -0.000136      0.000136     -0.000000
      3.81069      5.71627      0.00000         0.003131      0.000004      0.000000
      3.81100      1.90542      0.00000        -0.003131     -0.000004     -0.000000
      5.71627      3.81100      0.00000         0.000004     -0.003131     -0.000000
      1.90542      3.81069      0.00000        -0.000004      0.003131      0.000000
      0.00015      1.90542      0.00000        -0.003131      0.000004     -0.000000
      7.62154      5.71627      0.00000         0.003131     -0.000004      0.000000
      5.71627      0.00015      0.00000        -0.000004     -0.003131      0.000000
      1.90542      7.62154      0.00000         0.000004      0.003131     -0.000000
      5.71634      1.90550      0.00000         0.002465      0.002465      0.000000
      1.90535      5.71619      0.00000        -0.002465     -0.002465      0.000000
      1.90550      1.90535      0.00000         0.002465     -0.002465      0.000000
      5.71619      5.71634      0.00000        -0.002465      0.002465      0.000000
 -----------------------------------------------------------------------------------
    total drift:                                0.000000     -0.000000      0.000000


--------------------------------------------------------------------------------------------------------



  FREE ENERGIE OF THE ION-ELECTRON SYSTEM (eV)
  ---------------------------------------------------
  free  energy   TOTEN  =      -100.37185476 eV

  energy  without entropy=     -100.35390348  energy(sigma->0) =     -100.36287912
 


--------------------------------------------------------------------------------------------------------


    POTLOK:  cpu time    2.6788: real time    2.6795


--------------------------------------------------------------------------------------------------------


 stress matrix after NEB project (eV)
      0.02318      0.00000      0.00000
      0.00000      0.02318      0.00000
     -0.00000      0.00000      0.01099
  FORCES: max atom, RMS     0.003486    0.002820
  FORCE total and by dimension    0.011278    0.003131
  Stress total and by dimension    0.034569    0.023176


--------------------------------------------------------------------------------------------------------


  
 reached required accuracy - stopping structural energy minimisation
 writing wavefunctions
     LOOP+:  cpu time  181.7964: real time  202.1061
    4ORBIT:  cpu time    0.0000: real time    0.0000
 


 total charge     
 
# of ion       s       p       d       tot
------------------------------------------
    1        1.566   3.421   0.000   4.987
    2        1.566   3.421   0.000   4.987
    3        1.566   3.421   0.000   4.987
    4        1.566   3.421   0.000   4.987
    5        1.567   3.542   0.000   5.108
    6        1.567   3.542   0.000   5.108
    7        1.551   3.321   0.000   4.872
    8        1.551   3.321   0.000   4.872
    9        1.567   3.542   0.000   5.108
   10        1.567   3.542   0.000   5.108
   11        1.551   3.321   0.000   4.872
   12        1.551   3.321   0.000   4.872
   13        0.672   1.088   6.627   8.388
   14        0.672   1.088   6.627   8.388
   15        0.672   1.088   6.627   8.388
   16        0.672   1.088   6.627   8.388
--------------------------------------------------
tot         21.423  45.489  26.510  93.421
 


 magnetization (x)
 
# of ion       s       p       d       tot
------------------------------------------
    1        0.004  -0.004   0.000  -0.000
    2        0.004  -0.004   0.000  -0.000
    3        0.004  -0.004   0.000  -0.000
    4        0.004  -0.004   0.000  -0.000
    5        0.004   0.018   0.000   0.021
    6        0.004   0.018   0.000   0.021
    7        0.006   0.017   0.000   0.023
    8        0.006   0.017   0.000   0.023
    9        0.004   0.018   0.000   0.021
   10        0.004   0.018   0.000   0.021
   11        0.006   0.017   0.000   0.023
   12        0.006   0.017   0.000   0.023
   13        0.000  -0.000   0.161   0.161
   14        0.000  -0.000   0.161   0.161
   15        0.000  -0.000   0.161   0.161
   16        0.000  -0.000   0.161   0.161
--------------------------------------------------
tot          0.056   0.121   0.645   0.821
 

 total amount of memory used by VASP MPI-rank0    36963. kBytes
=======================================================================

   base      :      30000. kBytes
   nonlr-proj:       2337. kBytes
   fftplans  :        584. kBytes
   grid      :       1492. kBytes
   one-center:         62. kBytes
   wavefun   :       2488. kBytes
 
  
  
 General timing and accounting informations for this job:
 ========================================================
  
                  Total CPU time used (sec):      193.987
                            User time (sec):      188.242
                          System time (sec):        5.746
                         Elapsed time (sec):      215.410
  
                   Maximum memory used (kb):      216524.
                   Average memory used (kb):           0.
  
                          Minor page faults:        40210
                          Major page faults:          440
                 Voluntary context switches:         3338
