 vasp.5.4.4.18Apr17-6-g9f103f2a35 (build Aug 21 2019 12:36:18) complex          
  
 executed on IFC18.0.1.163_CrayMP date 2019.08.29  00:23:00
 running on  330 total cores
 distrk:  each k-point on   66 cores,    5 groups
 distr:  one band on NCORES_PER_BAND=  11 cores,    6 groups


--------------------------------------------------------------------------------------------------------


 INCAR:
 POTCAR:    PAW_PBE O 08Apr2002                   
 POTCAR:    PAW_PBE Ir 06Sep2000                  

 ----------------------------------------------------------------------------- 
|                                                                             |
|           W    W    AA    RRRRR   N    N  II  N    N   GGGG   !!!           |
|           W    W   A  A   R    R  NN   N  II  NN   N  G    G  !!!           |
|           W    W  A    A  R    R  N N  N  II  N N  N  G       !!!           |
|           W WW W  AAAAAA  RRRRR   N  N N  II  N  N N  G  GGG   !            |
|           WW  WW  A    A  R   R   N   NN  II  N   NN  G    G                |
|           W    W  A    A  R    R  N    N  II  N    N   GGGG   !!!           |
|                                                                             |
|      You have enabled k-point parallelism (KPAR>1).                         |
|      This developmental code was originally  written by Paul Kent at ORNL,  |
|      and carefully double checked in Vienna.                                |
|      GW as well as linear response parallelism added by Martijn Marsman     |
|      and Georg Kresse.                                                      |
|      Carefully verify results versus KPAR=1.                                |
|      Report problems to Paul Kent and Vienna.                               |
|                                                                             |
 ----------------------------------------------------------------------------- 

 POTCAR:    PAW_PBE O 08Apr2002                   
   VRHFIN =O: s2p4                                                              
   LEXCH  = PE                                                                  
   EATOM  =   432.3788 eV,   31.7789 Ry                                         
                                                                                
   TITEL  = PAW_PBE O 08Apr2002                                                 
   LULTRA =        F    use ultrasoft PP ?                                      
   IUNSCR =        1    unscreen: 0-lin 1-nonlin 2-no                           
   RPACOR =    1.200    partial core radius                                     
   POMASS =   16.000; ZVAL   =    6.000    mass and valenz                      
   RCORE  =    1.520    outmost cutoff radius                                   
   RWIGS  =    1.550; RWIGS  =    0.820    wigner-seitz radius (au A)           
   ENMAX  =  400.000; ENMIN  =  300.000 eV                                      
   ICORE  =        2    local potential                                         
   LCOR   =        T    correct aug charges                                     
   LPAW   =        T    paw PP                                                  
   EAUG   =  605.392                                                            
   DEXC   =    0.000                                                            
   RMAX   =    1.553    core radius for proj-oper                               
   RAUG   =    1.300    factor for augmentation sphere                          
   RDEP   =    1.550    radius for radial grids                                 
   RDEPT  =    1.329    core radius for aug-charge                              
                                                                                
   Atomic configuration                                                         
    4 entries                                                                   
     n  l   j            E        occ.                                          
     1  0  0.50      -514.6923   2.0000                                         
     2  0  0.50       -23.9615   2.0000                                         
     2  1  0.50        -9.0305   4.0000                                         
     3  2  1.50        -9.5241   0.0000                                         
   Description                                                                  
     l       E           TYP  RCUT    TYP  RCUT                                 
     0    -23.9615318     23  1.200                                             
     0     -9.5240782     23  1.200                                             
     1     -9.0304911     23  1.520                                             
     1      8.1634956     23  1.520                                             
     2     -9.5240782      7  1.500                                             
  local pseudopotential read in
  partial core-charges read in
  partial kinetic energy density read in
  kinetic energy density of atom read in
  atomic valenz-charges read in
  non local Contribution for L=           0  read in
    real space projection operators read in
  non local Contribution for L=           0  read in
    real space projection operators read in
  non local Contribution for L=           1  read in
    real space projection operators read in
  non local Contribution for L=           1  read in
    real space projection operators read in
    PAW grid and wavefunctions read in
 
   number of l-projection  operators is LMAX  =           4
   number of lm-projection operators is LMMAX =           8
 
 POTCAR:    PAW_PBE Ir 06Sep2000                  
   VRHFIN =Ir: s1d8                                                             
   LEXCH  = PE                                                                  
   EATOM  =   560.1833 eV,   41.1723 Ry                                         
                                                                                
   TITEL  = PAW_PBE Ir 06Sep2000                                                
   LULTRA =        F    use ultrasoft PP ?                                      
   IUNSCR =        1    unscreen: 0-lin 1-nonlin 2-no                           
   RPACOR =    2.250    partial core radius                                     
   POMASS =  192.220; ZVAL   =    9.000    mass and valenz                      
   RCORE  =    2.600    outmost cutoff radius                                   
   RWIGS  =    2.690; RWIGS  =    1.423    wigner-seitz radius (au A)           
   ENMAX  =  210.864; ENMIN  =  158.148 eV                                      
   RCLOC  =    1.857    cutoff for local pot                                    
   LCOR   =        T    correct aug charges                                     
   LPAW   =        T    paw PP                                                  
   EAUG   =  318.962                                                            
   DEXC   =    0.000                                                            
   RMAX   =    2.667    core radius for proj-oper                               
   RAUG   =    1.300    factor for augmentation sphere                          
   RDEP   =    2.748    radius for radial grids                                 
   RDEPT  =    2.300    core radius for aug-charge                              
                                                                                
   Atomic configuration                                                         
   16 entries                                                                   
     n  l   j            E        occ.                                          
     1  0  0.50    -76100.0449   2.0000                                         
     2  0  0.50    -13308.1683   2.0000                                         
     2  1  1.50    -11558.0021   6.0000                                         
     3  0  0.50     -3110.7274   2.0000                                         
     3  1  1.50     -2599.2109   6.0000                                         
     3  2  2.50     -2037.1515  10.0000                                         
     4  0  0.50      -661.6001   2.0000                                         
     4  1  1.50      -493.8981   6.0000                                         
     4  2  2.50      -288.1909  10.0000                                         
     4  3  3.50       -59.5718  14.0000                                         
     5  0  0.50       -95.3879   2.0000                                         
     5  1  1.50       -52.2747   6.0000                                         
     5  2  2.50        -5.4180   8.0000                                         
     6  0  0.50        -5.5479   1.0000                                         
     6  1  1.50        -6.8029   0.0000                                         
     5  3  2.50        -1.3606   0.0000                                         
   Description                                                                  
     l       E           TYP  RCUT    TYP  RCUT                                 
     2     -5.4179967     23  2.600                                             
     2     -6.7785793     23  2.600                                             
     0     -5.5478636     23  2.600                                             
     0      2.2542272     23  2.600                                             
     1     -2.7211652     23  2.600                                             
     1     20.4087390     23  2.600                                             
  local pseudopotential read in
  partial core-charges read in
  partial kinetic energy density read in
  atomic valenz-charges read in
  non local Contribution for L=           2  read in
    real space projection operators read in
  non local Contribution for L=           2  read in
    real space projection operators read in
  non local Contribution for L=           0  read in
    real space projection operators read in
  non local Contribution for L=           0  read in
    real space projection operators read in
  non local Contribution for L=           1  read in
    real space projection operators read in
  non local Contribution for L=           1  read in
    real space projection operators read in
    PAW grid and wavefunctions read in
 
   number of l-projection  operators is LMAX  =           6
   number of lm-projection operators is LMMAX =          18
 
 Optimization of the real space projectors (new method)

 maximal supplied QI-value         = 24.76
 optimisation between [QCUT,QGAM] = [ 12.38, 31.19] = [ 42.90,272.45] Ry 
 Optimized for a Real-space Cutoff    0.88 Angstroem

   l    n(q)    QCUT    max X(q) W(low)/X(q) W(high)/X(q)  e(spline) 
   0      8    12.378    20.381    0.23E-03    0.15E-03    0.14E-06
   0      8    12.378    15.268    0.25E-03    0.16E-03    0.15E-06
   1      8    12.378     5.964    0.24E-03    0.11E-03    0.16E-06
   1      8    12.378     5.382    0.21E-03    0.84E-04    0.13E-06
 Optimization of the real space projectors (new method)

 maximal supplied QI-value         = 14.36
 optimisation between [QCUT,QGAM] = [ 12.49, 31.31] = [ 43.72,274.50] Ry 
 Optimized for a Real-space Cutoff    1.40 Angstroem

   l    n(q)    QCUT    max X(q) W(low)/X(q) W(high)/X(q)  e(spline) 
   2     12    12.495   134.116    0.29E-03    0.64E-03    0.30E-04
   2     12    12.495   130.192    0.29E-03    0.64E-03    0.30E-04
   0     13    12.495    60.310    0.11E-03    0.19E-03    0.31E-04
   0     13    12.495    39.218    0.10E-03    0.18E-03    0.29E-04
   1     13    12.495    18.439    0.29E-03    0.21E-04    0.43E-04
   1     13    12.495    12.760    0.22E-03    0.16E-04    0.33E-04
  PAW_PBE O 08Apr2002                   :
 energy of atom  1       EATOM= -432.3788
 kinetic energy error for atom=    0.0168 (will be added to EATOM!!)
  PAW_PBE Ir 06Sep2000                  :
 energy of atom  2       EATOM= -560.1833
 kinetic energy error for atom=    0.0008 (will be added to EATOM!!)
 
 
 POSCAR:  O Ir                                   
  positions in cartesian coordinates
  No initial velocities read in
 exchange correlation table for  LEXCH =        8
   RHO(1)=    0.500       N(1)  =     2000
   RHO(2)=  100.500       N(2)  =     4000

 VTST: version 3.2, (02/03/18)

 CHAIN: initializing optimizer
 
 OPT: Using VASP Conjugate-Gradient optimizer
 CHAIN: Read ICHAIN            0
 
 POSCAR:  O Ir                                   
  positions in cartesian coordinates
  No initial velocities read in
 


--------------------------------------------------------------------------------------------------------


 ion  position               nearest neighbor table
   1  0.998  0.244  0.250-  15 1.86  13 2.02
   2  0.002  0.756  0.750-  16 1.86  14 2.02
   3  0.002  0.744  0.250-  13 1.86  15 2.02
   4  0.998  0.256  0.750-  14 1.86  16 2.02
   5  0.507  0.993  0.250-  13 1.85  13 2.03
   6  0.493  0.007  0.750-  14 1.85  14 2.03
   7  0.493  0.493  0.250-  15 1.85  15 2.03
   8  0.507  0.507  0.750-  16 1.85  16 2.03
   9  0.000  0.000  0.000-  13 1.93  14 1.93
  10  0.000  0.000  0.500-  13 1.93  14 1.93
  11  0.000  0.500  0.500-  15 1.93  16 1.93
  12  0.000  0.500  0.000-  15 1.93  16 1.93
  13  0.030  0.984  0.250-   5 1.85   3 1.86   9 1.93  10 1.93   1 2.02   5 2.03
  14  0.970  0.016  0.750-   6 1.85   4 1.86   9 1.93  10 1.93   2 2.02   6 2.03
  15  0.970  0.484  0.250-   7 1.85   1 1.86  11 1.93  12 1.93   3 2.02   7 2.03
  16  0.030  0.516  0.750-   8 1.85   2 1.86  11 1.93  12 1.93   4 2.02   8 2.03
 
  LATTYP: Found a simple orthorhombic cell.
 ALAT       =     3.8849500000
 B/A-ratio  =     1.9790962561
 C/A-ratio  =     1.9948133181
  
  Lattice vectors:
  
 A1 = (  -3.8849500000,   0.0000000000,   0.0000000000)
 A2 = (   0.0000000000,   0.0000000000,  -7.6886900000)
 A3 = (   0.0000000000,  -7.7497500000,   0.0000000000)


Analysis of symmetry for initial positions (statically):
=====================================================================
 Subroutine PRICEL returns:
 Original cell was already a primitive cell.
 

 Routine SETGRP: Setting up the symmetry group for a 
 simple orthorhombic supercell.


 Subroutine GETGRP returns: Found  8 space group operations
 (whereof  2 operations were pure point group operations)
 out of a pool of  8 trial point group operations.


The static configuration has the point symmetry S_2 .
 The point group associated with its full space group is D_2h.


Analysis of symmetry for dynamics (positions and initial velocities):
=====================================================================
 Subroutine PRICEL returns:
 Original cell was already a primitive cell.
 

 Routine SETGRP: Setting up the symmetry group for a 
 simple orthorhombic supercell.


 Subroutine GETGRP returns: Found  8 space group operations
 (whereof  2 operations were pure point group operations)
 out of a pool of  8 trial point group operations.


The dynamic configuration has the point symmetry S_2 .
 The point group associated with its full space group is D_2h.


Analysis of structural, dynamic, and magnetic symmetry:
=====================================================================
 Subroutine PRICEL returns:
 Original cell was already a primitive cell.
 

 Routine SETGRP: Setting up the symmetry group for a 
 simple orthorhombic supercell.


 Subroutine GETGRP returns: Found  8 space group operations
 (whereof  2 operations were pure point group operations)
 out of a pool of  8 trial point group operations.


The magnetic configuration has the point symmetry S_2 .
 The point group associated with its full space group is D_2h.


 Subroutine INISYM returns: Found  8 space group operations
 (whereof  2 operations are pure point group operations),
 and found     1 'primitive' translations

 
 
 KPOINTS: KPOINTS created by Atomic Simulation Env

Automatic generation of k-mesh.
Space group operators:
 irot       det(A)        alpha          n_x          n_y          n_z        tau_x        tau_y        tau_z
    1     1.000000     0.000000     1.000000     0.000000     0.000000     0.000000     0.000000     0.000000
    2    -1.000000     0.000000     1.000000     0.000000     0.000000     0.000000     0.000000     0.000000
    3     1.000000   179.999999     0.000000     1.000000     0.000000    -0.000000    -0.500000    -0.500000
    4    -1.000000   179.999999     0.000000     1.000000     0.000000     0.000000    -0.500000    -0.500000
    5     1.000000   180.000000     0.000000     0.000000     1.000000    -0.000000     0.000000    -0.500000
    6    -1.000000   180.000000     0.000000     0.000000     1.000000     0.000000     0.000000    -0.500000
    7     1.000000   180.000000     1.000000     0.000000     0.000000     0.000000    -0.500000     0.000000
    8    -1.000000   180.000000     1.000000     0.000000     0.000000    -0.000000    -0.500000     0.000000
 
 Subroutine IBZKPT returns following result:
 ===========================================
 
 Found     12 irreducible k-points:
 
 Following reciprocal coordinates:
            Coordinates               Weight
  0.000000  0.000000  0.000000      1.000000
  0.200000  0.000000  0.000000      2.000000
  0.400000  0.000000  0.000000      2.000000
  0.000000  0.500000  0.000000      1.000000
  0.200000  0.500000  0.000000      2.000000
  0.400000  0.500000  0.000000      2.000000
  0.000000  0.000000  0.500000      1.000000
  0.200000  0.000000  0.500000      2.000000
  0.400000  0.000000  0.500000      2.000000
  0.000000  0.500000  0.500000      1.000000
  0.200000  0.500000  0.500000      2.000000
  0.400000  0.500000  0.500000      2.000000
 
 Following cartesian coordinates:
            Coordinates               Weight
  0.000000  0.000000  0.000000      1.000000
  0.051481  0.000000  0.000000      2.000000
  0.102961  0.000000  0.000000      2.000000
  0.000000  0.064518  0.000000      1.000000
  0.051481  0.064518  0.000000      2.000000
  0.102961  0.064518  0.000000      2.000000
  0.000000  0.000000  0.065031      1.000000
  0.051481  0.000000  0.065031      2.000000
  0.102961  0.000000  0.065031      2.000000
  0.000000  0.064518  0.065031      1.000000
  0.051481  0.064518  0.065031      2.000000
  0.102961  0.064518  0.065031      2.000000
 


--------------------------------------------------------------------------------------------------------




 Dimension of arrays:
   k-points           NKPTS =     12   k-points in BZ     NKDIM =     12   number of bands    NBANDS=     72
   number of dos      NEDOS =    301   number of ions     NIONS =     16
   non local maximal  LDIM  =      6   non local SUM 2l+1 LMDIM =     18
   total plane-waves  NPLWV = 131072
   max r-space proj   IRMAX =   6626   max aug-charges    IRDMAX=  11770
   dimension x,y,z NGX =    32 NGY =   64 NGZ =   64
   dimension x,y,z NGXF=    42 NGYF=   84 NGZF=   84
   support grid    NGXF=    42 NGYF=   84 NGZF=   84
   ions per type =              12   4
   NGX,Y,Z   is equivalent  to a cutoff of  13.69, 13.73, 13.84 a.u.
   NGXF,Y,Z  is equivalent  to a cutoff of  17.97, 18.02, 18.16 a.u.

 SYSTEM =  unknown system                          
 POSCAR =   O Ir                                   

 Startparameter for this run:
   NWRITE =      2    write-flag & timer
   PREC   = high      normal or accurate (medium, high low for compatibility)
   ISTART =      0    job   : 0-new  1-cont  2-samecut
   ICHARG =      2    charge: 1-file 2-atom 10-const
   ISPIN  =      2    spin polarized calculation?
   LNONCOLLINEAR =      F non collinear calculations
   LSORBIT =      F    spin-orbit coupling
   INIWAV =      1    electr: 0-lowe 1-rand  2-diag
   LASPH  =      T    aspherical Exc in radial PAW
   METAGGA=      F    non-selfconsistent MetaGGA calc.

 Electronic Relaxation 1
   ENCUT  =  600.0 eV  44.10 Ry    6.64 a.u.   7.76 15.48 15.36*2*pi/ulx,y,z
   ENINI  =  600.0     initial cutoff
   ENAUG  =  605.4 eV  augmentation charge cutoff
   NELM   =    220;   NELMIN=  2; NELMDL= -5     # of ELM steps 
   EDIFF  = 0.1E-05   stopping-criterion for ELM
   LREAL  =      T    real-space projection
   NLSPLINE    = F    spline interpolate recip. space projectors
   LCOMPAT=      F    compatible to vasp.4.4
   GGA_COMPAT  = T    GGA compatible to vasp.4.4-vasp.4.6
   LMAXPAW     = -100 max onsite density
   LMAXMIX     =    6 max onsite mixed and CHGCAR
   VOSKOWN=      0    Vosko Wilk Nusair interpolation
   ROPT   =   -0.00040  -0.00040
 Ionic relaxation
   EDIFFG = 0.5E-02   stopping-criterion for IOM
   NSW    =    150    number of steps for IOM
   NBLOCK =      1;   KBLOCK =    150    inner block; outer block 
   IBRION =      2    ionic relax: 0-MD 1-quasi-New 2-CG
   NFREE  =      1    steps in history (QN), initial steepest desc. (CG)
   ISIF   =      7    stress and relaxation
   IWAVPR =     11    prediction:  0-non 1-charg 2-wave 3-comb
   ISYM   =      2    0-nonsym 1-usesym 2-fastsym
   LCORR  =      T    Harris-Foulkes like correction to forces

   POTIM  = 0.0300    time-step for ionic-motion
   TEIN   =    0.0    initial temperature
   TEBEG  =    0.0;   TEEND  =   0.0 temperature during run
   SMASS  =  -3.00    Nose mass-parameter (am)
   estimated Nose-frequenzy (Omega)   =  0.10E-29 period in steps =****** mass=  -0.345E-27a.u.
   SCALEE = 1.0000    scale energy and forces
   NPACO  =    256;   APACO  = 16.0  distance and # of slots for P.C.
   PSTRESS=    0.0 pullay stress

  Mass of Ions in am
   POMASS =  16.00192.22
  Ionic Valenz
   ZVAL   =   6.00  9.00
  Atomic Wigner-Seitz radii
   RWIGS  =  -1.00 -1.00
  virtual crystal weights 
   VCA    =   1.00  1.00
   NELECT =     108.0000    total number of electrons
   NUPDOWN=      -1.0000    fix difference up-down

 DOS related values:
   EMIN   =  10.00;   EMAX   =-10.00  energy-range for DOS
   EFERMI =   0.00
   ISMEAR =     0;   SIGMA  =   0.05  broadening in eV -4-tet -1-fermi 0-gaus

 Electronic relaxation 2 (details)
   IALGO  =     68    algorithm
   LDIAG  =      T    sub-space diagonalisation (order eigenvalues)
   LSUBROT=      F    optimize rotation matrix (better conditioning)
   TURBO    =      0    0=normal 1=particle mesh
   IRESTART =      0    0=no restart 2=restart with 2 vectors
   NREBOOT  =      0    no. of reboots
   NMIN     =      0    reboot dimension
   EREF     =   0.00    reference energy to select bands
   IMIX   =      4    mixing-type and parameters
     AMIX     =   0.20;   BMIX     =  0.00
     AMIX_MAG =   0.10;   BMIX_MAG =  0.00
     AMIN     =   0.10
     WC   =   100.;   INIMIX=   0;  MIXPRE=   1;  MAXMIX= -45

 Intra band minimization:
   WEIMIN = 0.0010     energy-eigenvalue tresh-hold
   EBREAK =  0.35E-08  absolut break condition
   DEPER  =   0.30     relativ break condition  

   TIME   =   0.40     timestep for ELM

  volume/ion in A,a.u.               =      14.47        97.63
  Fermi-wavevector in a.u.,A,eV,Ry     =   1.269719  2.399421 21.935124  1.612186
  Thomas-Fermi vector in A             =   2.402745
 
 Write flags
   LWAVE        =      T    write WAVECAR
   LDOWNSAMPLE  =      F    k-point downsampling of WAVECAR
   LCHARG       =      T    write CHGCAR
   LVTOT        =      F    write LOCPOT, total local potential
   LVHAR        =      F    write LOCPOT, Hartree potential only
   LELF         =      F    write electronic localiz. function (ELF)
   LORBIT       =     11    0 simple, 1 ext, 2 COOP (PROOUT), +10 PAW based schemes


 Dipole corrections
   LMONO  =      F    monopole corrections only (constant potential shift)
   LDIPOL =      F    correct potential (dipole corrections)
   IDIPOL =      0    1-x, 2-y, 3-z, 4-all directions 
   EPSILON=  1.0000000 bulk dielectric constant

 Exchange correlation treatment:
   GGA     =    PE    GGA type
   LEXCH   =     8    internal setting for exchange type
   VOSKOWN=      0    Vosko Wilk Nusair interpolation
   LHFCALC =     F    Hartree Fock is set to
   LHFONE  =     F    Hartree Fock one center treatment
   AEXX    =    0.0000 exact exchange contribution

 Linear response parameters
   LEPSILON=     F    determine dielectric tensor
   LRPA    =     F    only Hartree local field effects (RPA)
   LNABLA  =     F    use nabla operator in PAW spheres
   LVEL    =     F    velocity operator in full k-point grid
   LINTERFAST=   F  fast interpolation
   KINTER  =     0    interpolate to denser k-point grid
   CSHIFT  =0.1000    complex shift for real part using Kramers Kronig
   OMEGAMAX=  -1.0    maximum frequency
   DEG_THRESHOLD= 0.2000000E-02 threshold for treating states as degnerate
   RTIME   =   -0.100 relaxation time in fs
  (WPLASMAI=    0.000 imaginary part of plasma frequency in eV, 0.658/RTIME)
   DFIELD  = 0.0000000 0.0000000 0.0000000 field for delta impulse in time
 
 Orbital magnetization related:
   ORBITALMAG=     F  switch on orbital magnetization
   LCHIMAG   =     F  perturbation theory with respect to B field
   DQ        =  0.001000  dq finite difference perturbation B field
   LLRAUG    =     F  two centre corrections for induced B field



--------------------------------------------------------------------------------------------------------


 conjugate gradient relaxation of ions
 charge density and potential will be updated during run
 spin polarized calculation
 RMM-DIIS sequential band-by-band and
  variant of blocked Davidson during initial phase
 perform sub-space diagonalisation
    before iterative eigenvector-optimisation
 modified Broyden-mixing scheme, WC =      100.0
 initial mixing is a simple linear mixing with ALPHA =  0.2000
 Hartree-type preconditioning will be used
 using additional bands           18
 real space projection scheme for non local part
 use partial core corrections
 calculate Harris-corrections to forces 
   (improved forces if not selfconsistent)
 use gradient corrections 
 use of overlap-Matrix (Vanderbilt PP)
 Gauss-broadening in eV      SIGMA  =   0.05


--------------------------------------------------------------------------------------------------------


  energy-cutoff  :      600.00
  volume of cell :      231.49
      direct lattice vectors                 reciprocal lattice vectors
     3.884950000  0.000000000  0.000000000     0.257403570  0.000000000  0.000000000
     0.000000000  7.749750000  0.000000000     0.000000000  0.129036421  0.000000000
     0.000000000  0.000000000  7.688690000     0.000000000  0.000000000  0.130061168

  length of vectors
     3.884950000  7.749750000  7.688690000     0.257403570  0.129036421  0.130061168


 
 k-points in units of 2pi/SCALE and weight: KPOINTS created by Atomic Simulation Env
   0.00000000  0.00000000  0.00000000       0.050
   0.05148071  0.00000000  0.00000000       0.100
   0.10296143  0.00000000  0.00000000       0.100
   0.00000000  0.06451821  0.00000000       0.050
   0.05148071  0.06451821  0.00000000       0.100
   0.10296143  0.06451821  0.00000000       0.100
   0.00000000  0.00000000  0.06503058       0.050
   0.05148071  0.00000000  0.06503058       0.100
   0.10296143  0.00000000  0.06503058       0.100
   0.00000000  0.06451821  0.06503058       0.050
   0.05148071  0.06451821  0.06503058       0.100
   0.10296143  0.06451821  0.06503058       0.100
 
 k-points in reciprocal lattice and weights: KPOINTS created by Atomic Simulation Env
   0.00000000  0.00000000  0.00000000       0.050
   0.20000000  0.00000000  0.00000000       0.100
   0.40000000  0.00000000  0.00000000       0.100
   0.00000000  0.50000000  0.00000000       0.050
   0.20000000  0.50000000  0.00000000       0.100
   0.40000000  0.50000000  0.00000000       0.100
   0.00000000  0.00000000  0.50000000       0.050
   0.20000000  0.00000000  0.50000000       0.100
   0.40000000  0.00000000  0.50000000       0.100
   0.00000000  0.50000000  0.50000000       0.050
   0.20000000  0.50000000  0.50000000       0.100
   0.40000000  0.50000000  0.50000000       0.100
 
 position of ions in fractional coordinates (direct lattice) 
   0.99843000  0.24405000  0.25000000
   0.00157000  0.75595000  0.75000000
   0.00157000  0.74405000  0.25000000
   0.99843000  0.25595000  0.75000000
   0.50650000  0.99345000  0.25000000
   0.49350000  0.00655000  0.75000000
   0.49350000  0.49345000  0.25000000
   0.50650000  0.50655000  0.75000000
   0.00000000  0.00000000  0.00000000
   0.00000000  0.00000000  0.50000000
   0.00000000  0.50000000  0.50000000
   0.00000000  0.50000000  0.00000000
   0.02966000  0.98368000  0.25000000
   0.97034000  0.01632000  0.75000000
   0.97034000  0.48368000  0.25000000
   0.02966000  0.51632000  0.75000000
 
 position of ions in cartesian coordinates  (Angst):
   3.87885063  1.89132649  1.92217250
   0.00609937  5.85842351  5.76651750
   0.00609937  5.76620149  1.92217250
   3.87885063  1.98354851  5.76651750
   1.96772718  7.69898914  1.92217250
   1.91722282  0.05076086  5.76651750
   1.91722282  3.82411414  1.92217250
   1.96772718  3.92563586  5.76651750
   0.00000000  0.00000000  0.00000000
   0.00000000  0.00000000  3.84434500
   0.00000000  3.87487500  3.84434500
   0.00000000  3.87487500  0.00000000
   0.11522762  7.62327408  1.92217250
   3.76972238  0.12647592  5.76651750
   3.76972238  3.74839908  1.92217250
   0.11522762  4.00135092  5.76651750
 


--------------------------------------------------------------------------------------------------------


 k-point  1 :   0.0000 0.0000 0.0000  plane waves:    7731
 k-point  2 :   0.2000 0.0000 0.0000  plane waves:    7733
 k-point  3 :   0.4000 0.0000 0.0000  plane waves:    7748
 k-point  4 :   0.0000 0.5000 0.0000  plane waves:    7746
 k-point  5 :   0.2000 0.5000 0.0000  plane waves:    7708
 k-point  6 :   0.4000 0.5000 0.0000  plane waves:    7736
 k-point  7 :   0.0000 0.0000 0.5000  plane waves:    7758
 k-point  8 :   0.2000 0.0000 0.5000  plane waves:    7704
 k-point  9 :   0.4000 0.0000 0.5000  plane waves:    7726
 k-point 10 :   0.0000 0.5000 0.5000  plane waves:    7712
 k-point 11 :   0.2000 0.5000 0.5000  plane waves:    7708
 k-point 12 :   0.4000 0.5000 0.5000  plane waves:    7724

 maximum and minimum number of plane-waves per node :       723      683

 maximum number of plane-waves:      7758
 maximum index in each direction: 
   IXMAX=    7   IYMAX=   15   IZMAX=   15
   IXMIN=   -8   IYMIN=  -15   IZMIN=  -15


 real space projection operators:
  total allocation   :       4749.19 KBytes
  max/ min on nodes  :        500.50        113.94


 parallel 3D FFT for wavefunctions:
    minimum data exchange during FFTs selected (reduces bandwidth)
 parallel 3D FFT for charge:
    minimum data exchange during FFTs selected (reduces bandwidth)


 total amount of memory used by VASP MPI-rank0    37984. kBytes
=======================================================================

   base      :      30000. kBytes
   nonlr-proj:       2328. kBytes
   fftplans  :        630. kBytes
   grid      :       1564. kBytes
   one-center:         62. kBytes
   wavefun   :       3400. kBytes
 
     INWAV:  cpu time    0.0002: real time    0.0002
 Broyden mixing: mesh for mixing (old mesh)
   NGX = 15   NGY = 31   NGZ = 31
  (NGX  = 42   NGY  = 84   NGZ  = 84)
  gives a total of  14415 points

 initial charge density was supplied:
 charge density of overlapping atoms calculated
 number of electron     108.0000000 magnetization      16.0000000
 keeping initial charge density in first step


--------------------------------------------------------------------------------------------------------


 Maximum index for non-local projection operator          577
 Maximum index for augmentation-charges          602 (set IRDMAX)


--------------------------------------------------------------------------------------------------------


 First call to EWALD:  gamma=   0.289
 Maximum number of real-space cells 4x 2x 2
 Maximum number of reciprocal cells 2x 3x 3

    FEWALD:  cpu time    0.0068: real time    0.0071


--------------------------------------- Iteration      1(   1)  ---------------------------------------


    POTLOK:  cpu time    0.0580: real time    0.1346
    SETDIJ:  cpu time    2.6446: real time    2.6513
     EDDAV:  cpu time    0.8872: real time    0.9825
       DOS:  cpu time    0.0069: real time    0.0120
    --------------------------------------------
      LOOP:  cpu time    3.5968: real time    3.7804

 eigenvalue-minimisations  :  3456
 total energy-change (2. order) : 0.1171972E+04  (-0.5747098E+04)
 number of electron     108.0000000 magnetization      16.0000000
 augmentation part      108.0000000 magnetization      16.0000000

 Free energy of the ion-electron system (eV)
  ---------------------------------------------------
  alpha Z        PSCENC =       366.09138292
  Ewald energy   TEWEN  =     -5162.14338437
  -Hartree energ DENC   =     -2448.09920297
  -exchange      EXHF   =         0.00000000
  -V(xc)+E(xc)   XCENC  =       262.59136258
  PAW double counting   =      6362.12184073    -6222.39335305
  entropy T*S    EENTRO =        -0.00557747
  eigenvalues    EBANDS =       584.73567977
  atomic energy  EATOM  =      7429.07371459
  Solvation  Ediel_sol  =         0.00000000
  ---------------------------------------------------
  free energy    TOTEN  =      1171.97246272 eV

  energy without entropy =     1171.97804020  energy(sigma->0) =     1171.97525146


--------------------------------------------------------------------------------------------------------




--------------------------------------- Iteration      1(   2)  ---------------------------------------


     EDDAV:  cpu time    0.8508: real time    0.8929
       DOS:  cpu time    0.0046: real time    0.0054
    --------------------------------------------
      LOOP:  cpu time    0.8555: real time    0.8983

 eigenvalue-minimisations  :  3492
 total energy-change (2. order) :-0.1141848E+04  (-0.1083105E+04)
 number of electron     108.0000000 magnetization      16.0000000
 augmentation part      108.0000000 magnetization      16.0000000

 Free energy of the ion-electron system (eV)
  ---------------------------------------------------
  alpha Z        PSCENC =       366.09138292
  Ewald energy   TEWEN  =     -5162.14338437
  -Hartree energ DENC   =     -2448.09920297
  -exchange      EXHF   =         0.00000000
  -V(xc)+E(xc)   XCENC  =       262.59136258
  PAW double counting   =      6362.12184073    -6222.39335305
  entropy T*S    EENTRO =        -0.00840505
  eigenvalues    EBANDS =      -557.10985632
  atomic energy  EATOM  =      7429.07371459
  Solvation  Ediel_sol  =         0.00000000
  ---------------------------------------------------
  free energy    TOTEN  =        30.12409906 eV

  energy without entropy =       30.13250411  energy(sigma->0) =       30.12830159


--------------------------------------------------------------------------------------------------------




--------------------------------------- Iteration      1(   3)  ---------------------------------------


     EDDAV:  cpu time    1.1100: real time    1.1599
       DOS:  cpu time    0.0055: real time    0.0055
    --------------------------------------------
      LOOP:  cpu time    1.1154: real time    1.1654

 eigenvalue-minimisations  :  4776
 total energy-change (2. order) :-0.1591292E+03  (-0.1501521E+03)
 number of electron     108.0000000 magnetization      16.0000000
 augmentation part      108.0000000 magnetization      16.0000000

 Free energy of the ion-electron system (eV)
  ---------------------------------------------------
  alpha Z        PSCENC =       366.09138292
  Ewald energy   TEWEN  =     -5162.14338437
  -Hartree energ DENC   =     -2448.09920297
  -exchange      EXHF   =         0.00000000
  -V(xc)+E(xc)   XCENC  =       262.59136258
  PAW double counting   =      6362.12184073    -6222.39335305
  entropy T*S    EENTRO =        -0.02217794
  eigenvalues    EBANDS =      -716.22531815
  atomic energy  EATOM  =      7429.07371459
  Solvation  Ediel_sol  =         0.00000000
  ---------------------------------------------------
  free energy    TOTEN  =      -129.00513566 eV

  energy without entropy =     -128.98295772  energy(sigma->0) =     -128.99404669


--------------------------------------------------------------------------------------------------------




--------------------------------------- Iteration      1(   4)  ---------------------------------------


     EDDAV:  cpu time    0.8929: real time    0.9404
       DOS:  cpu time    0.0044: real time    0.0044
    --------------------------------------------
      LOOP:  cpu time    0.8973: real time    0.9447

 eigenvalue-minimisations  :  3816
 total energy-change (2. order) :-0.5895241E+01  (-0.5850856E+01)
 number of electron     108.0000000 magnetization      16.0000000
 augmentation part      108.0000000 magnetization      16.0000000

 Free energy of the ion-electron system (eV)
  ---------------------------------------------------
  alpha Z        PSCENC =       366.09138292
  Ewald energy   TEWEN  =     -5162.14338437
  -Hartree energ DENC   =     -2448.09920297
  -exchange      EXHF   =         0.00000000
  -V(xc)+E(xc)   XCENC  =       262.59136258
  PAW double counting   =      6362.12184073    -6222.39335305
  entropy T*S    EENTRO =        -0.02641792
  eigenvalues    EBANDS =      -722.11631903
  atomic energy  EATOM  =      7429.07371459
  Solvation  Ediel_sol  =         0.00000000
  ---------------------------------------------------
  free energy    TOTEN  =      -134.90037652 eV

  energy without entropy =     -134.87395860  energy(sigma->0) =     -134.88716756


--------------------------------------------------------------------------------------------------------




--------------------------------------- Iteration      1(   5)  ---------------------------------------


     EDDAV:  cpu time    1.0226: real time    1.0695
       DOS:  cpu time    0.0046: real time    0.0046
    CHARGE:  cpu time    0.1867: real time    0.1956
    MIXING:  cpu time    0.0055: real time    0.0096
    --------------------------------------------
      LOOP:  cpu time    1.2195: real time    1.2793

 eigenvalue-minimisations  :  4428
 total energy-change (2. order) :-0.1691766E+00  (-0.1690763E+00)
 number of electron     107.9999733 magnetization      14.8451838
 augmentation part       15.8669589 magnetization      12.3061947

 Broyden mixing:
  rms(total) = 0.93443E+01    rms(broyden)= 0.93441E+01
  rms(prec ) = 0.10562E+02
  weight for this iteration     100.00

 Free energy of the ion-electron system (eV)
  ---------------------------------------------------
  alpha Z        PSCENC =       366.09138292
  Ewald energy   TEWEN  =     -5162.14338437
  -Hartree energ DENC   =     -2448.09920297
  -exchange      EXHF   =         0.00000000
  -V(xc)+E(xc)   XCENC  =       262.59136258
  PAW double counting   =      6362.12184073    -6222.39335305
  entropy T*S    EENTRO =        -0.02653750
  eigenvalues    EBANDS =      -722.28537601
  atomic energy  EATOM  =      7429.07371459
  Solvation  Ediel_sol  =         0.00000000
  ---------------------------------------------------
  free energy    TOTEN  =      -135.06955308 eV

  energy without entropy =     -135.04301558  energy(sigma->0) =     -135.05628433


--------------------------------------------------------------------------------------------------------




--------------------------------------- Iteration      1(   6)  ---------------------------------------


    POTLOK:  cpu time    0.0426: real time    0.0877
    SETDIJ:  cpu time    2.6457: real time    2.6458
    EDDIAG:  cpu time    0.2456: real time    0.2555
  RMM-DIIS:  cpu time    0.3439: real time    0.3495
    ORTHCH:  cpu time    0.0156: real time    0.0156
       DOS:  cpu time    0.0046: real time    0.0046
    CHARGE:  cpu time    0.1800: real time    0.1800
    MIXING:  cpu time    0.0059: real time    0.0104
    --------------------------------------------
      LOOP:  cpu time    3.4840: real time    3.5491

 eigenvalue-minimisations  :  3509
 total energy-change (2. order) : 0.3727327E+02  (-0.5152165E+01)
 number of electron     107.9999780 magnetization      13.5066969
 augmentation part       16.9549495 magnetization       9.8719193

 Broyden mixing:
  rms(total) = 0.53160E+01    rms(broyden)= 0.53159E+01
  rms(prec ) = 0.54236E+01
  weight for this iteration     100.00

 eigenvalues of (default mixing * dielectric matrix)
  average eigenvalue GAMMA=   1.6920
  1.6920

 Free energy of the ion-electron system (eV)
  ---------------------------------------------------
  alpha Z        PSCENC =       366.09138292
  Ewald energy   TEWEN  =     -5162.14338437
  -Hartree energ DENC   =     -2479.84599159
  -exchange      EXHF   =         0.00000000
  -V(xc)+E(xc)   XCENC  =       269.22371839
  PAW double counting   =      7013.31040411    -6879.87633781
  entropy T*S    EENTRO =        -0.02898150
  eigenvalues    EBANDS =      -653.60080871
  atomic energy  EATOM  =      7429.07371459
  Solvation  Ediel_sol  =         0.00000000
  ---------------------------------------------------
  free energy    TOTEN  =       -97.79628398 eV

  energy without entropy =      -97.76730247  energy(sigma->0) =      -97.78179322


--------------------------------------------------------------------------------------------------------




--------------------------------------- Iteration      1(   7)  ---------------------------------------


    POTLOK:  cpu time    0.0430: real time    0.0872
    SETDIJ:  cpu time    2.6460: real time    2.6461
    EDDIAG:  cpu time    0.2445: real time    0.2446
  RMM-DIIS:  cpu time    0.3315: real time    0.3315
    ORTHCH:  cpu time    0.0157: real time    0.0158
       DOS:  cpu time    0.0045: real time    0.0045
    CHARGE:  cpu time    0.1786: real time    0.1786
    MIXING:  cpu time    0.0082: real time    0.0099
    --------------------------------------------
      LOOP:  cpu time    3.4721: real time    3.5182

 eigenvalue-minimisations  :  3472
 total energy-change (2. order) :-0.3465835E+00  (-0.1057742E+01)
 number of electron     107.9999797 magnetization      12.1435196
 augmentation part       17.6825624 magnetization       7.9162229

 Broyden mixing:
  rms(total) = 0.42190E+01    rms(broyden)= 0.42190E+01
  rms(prec ) = 0.42702E+01
  weight for this iteration     100.00

 eigenvalues of (default mixing * dielectric matrix)
  average eigenvalue GAMMA=   1.8956
  0.9446  2.8467

 Free energy of the ion-electron system (eV)
  ---------------------------------------------------
  alpha Z        PSCENC =       366.09138292
  Ewald energy   TEWEN  =     -5162.14338437
  -Hartree energ DENC   =     -2484.89623087
  -exchange      EXHF   =         0.00000000
  -V(xc)+E(xc)   XCENC  =       270.77510468
  PAW double counting   =      7753.91661032    -7624.75639444
  entropy T*S    EENTRO =        -0.03104442
  eigenvalues    EBANDS =      -646.17262592
  atomic energy  EATOM  =      7429.07371459
  Solvation  Ediel_sol  =         0.00000000
  ---------------------------------------------------
  free energy    TOTEN  =       -98.14286750 eV

  energy without entropy =      -98.11182308  energy(sigma->0) =      -98.12734529


--------------------------------------------------------------------------------------------------------




--------------------------------------- Iteration      1(   8)  ---------------------------------------


    POTLOK:  cpu time    0.0420: real time    0.0871
    SETDIJ:  cpu time    2.6454: real time    2.6455
    EDDIAG:  cpu time    0.2438: real time    0.2438
  RMM-DIIS:  cpu time    0.3314: real time    0.3315
    ORTHCH:  cpu time    0.0154: real time    0.0154
       DOS:  cpu time    0.0062: real time    0.0062
    CHARGE:  cpu time    0.1783: real time    0.1783
    MIXING:  cpu time    0.0076: real time    0.0078
    --------------------------------------------
      LOOP:  cpu time    3.4700: real time    3.5156

 eigenvalue-minimisations  :  3460
 total energy-change (2. order) :-0.3306118E-01  (-0.1100489E+00)
 number of electron     107.9999785 magnetization       8.8501172
 augmentation part       17.1647097 magnetization       5.5638215

 Broyden mixing:
  rms(total) = 0.26442E+01    rms(broyden)= 0.26441E+01
  rms(prec ) = 0.27109E+01
  weight for this iteration     100.00

 eigenvalues of (default mixing * dielectric matrix)
  average eigenvalue GAMMA=   2.6323
  6.1128  1.1714  0.6126

 Free energy of the ion-electron system (eV)
  ---------------------------------------------------
  alpha Z        PSCENC =       366.09138292
  Ewald energy   TEWEN  =     -5162.14338437
  -Hartree energ DENC   =     -2477.37861142
  -exchange      EXHF   =         0.00000000
  -V(xc)+E(xc)   XCENC  =       269.36081074
  PAW double counting   =      8534.34826373    -8408.07662210
  entropy T*S    EENTRO =        -0.02208810
  eigenvalues    EBANDS =      -649.42939468
  atomic energy  EATOM  =      7429.07371459
  Solvation  Ediel_sol  =         0.00000000
  ---------------------------------------------------
  free energy    TOTEN  =       -98.17592869 eV

  energy without entropy =      -98.15384059  energy(sigma->0) =      -98.16488464


--------------------------------------------------------------------------------------------------------




--------------------------------------- Iteration      1(   9)  ---------------------------------------


    POTLOK:  cpu time    0.0411: real time    0.0867
    SETDIJ:  cpu time    2.6461: real time    2.6461
    EDDIAG:  cpu time    0.2438: real time    0.2439
  RMM-DIIS:  cpu time    0.3323: real time    0.3323
    ORTHCH:  cpu time    0.0155: real time    0.0155
       DOS:  cpu time    0.0044: real time    0.0044
    CHARGE:  cpu time    0.1785: real time    0.1786
    MIXING:  cpu time    0.0079: real time    0.0089
    --------------------------------------------
      LOOP:  cpu time    3.4697: real time    3.5165

 eigenvalue-minimisations  :  3464
 total energy-change (2. order) :-0.1332284E+01  (-0.1603059E+00)
 number of electron     107.9999782 magnetization       8.8274309
 augmentation part       17.0023254 magnetization       6.3530626

 Broyden mixing:
  rms(total) = 0.14492E+01    rms(broyden)= 0.14491E+01
  rms(prec ) = 0.16565E+01
  weight for this iteration     100.00

 eigenvalues of (default mixing * dielectric matrix)
  average eigenvalue GAMMA=   1.9943
  5.6898  1.1626  0.5624  0.5624

 Free energy of the ion-electron system (eV)
  ---------------------------------------------------
  alpha Z        PSCENC =       366.09138292
  Ewald energy   TEWEN  =     -5162.14338437
  -Hartree energ DENC   =     -2468.02113941
  -exchange      EXHF   =         0.00000000
  -V(xc)+E(xc)   XCENC  =       268.36740991
  PAW double counting   =     10341.77394857   -10222.60011104
  entropy T*S    EENTRO =        -0.01735029
  eigenvalues    EBANDS =      -652.03268313
  atomic energy  EATOM  =      7429.07371459
  Solvation  Ediel_sol  =         0.00000000
  ---------------------------------------------------
  free energy    TOTEN  =       -99.50821225 eV

  energy without entropy =      -99.49086196  energy(sigma->0) =      -99.49953710


--------------------------------------------------------------------------------------------------------




--------------------------------------- Iteration      1(  10)  ---------------------------------------


    POTLOK:  cpu time    0.0502: real time    0.0961
    SETDIJ:  cpu time    2.6462: real time    2.6463
    EDDIAG:  cpu time    0.2438: real time    0.2438
  RMM-DIIS:  cpu time    0.3304: real time    0.3304
    ORTHCH:  cpu time    0.0155: real time    0.0155
       DOS:  cpu time    0.0044: real time    0.0044
    CHARGE:  cpu time    0.1787: real time    0.1788
    MIXING:  cpu time    0.0046: real time    0.0046
    --------------------------------------------
      LOOP:  cpu time    3.4738: real time    3.5199

 eigenvalue-minimisations  :  3459
 total energy-change (2. order) : 0.6484517E+00  (-0.2946867E-01)
 number of electron     107.9999784 magnetization       8.6274528
 augmentation part       17.1435906 magnetization       6.1849180

 Broyden mixing:
  rms(total) = 0.10695E+01    rms(broyden)= 0.10695E+01
  rms(prec ) = 0.11320E+01
  weight for this iteration     100.00

 eigenvalues of (default mixing * dielectric matrix)
  average eigenvalue GAMMA=   1.7295
  5.4719  1.1774  0.7468  0.7468  0.5047

 Free energy of the ion-electron system (eV)
  ---------------------------------------------------
  alpha Z        PSCENC =       366.09138292
  Ewald energy   TEWEN  =     -5162.14338437
  -Hartree energ DENC   =     -2471.05230905
  -exchange      EXHF   =         0.00000000
  -V(xc)+E(xc)   XCENC  =       268.83793498
  PAW double counting   =     10158.40794045   -10038.75025140
  entropy T*S    EENTRO =        -0.03044256
  eigenvalues    EBANDS =      -649.29434613
  atomic energy  EATOM  =      7429.07371459
  Solvation  Ediel_sol  =         0.00000000
  ---------------------------------------------------
  free energy    TOTEN  =       -98.85976057 eV

  energy without entropy =      -98.82931801  energy(sigma->0) =      -98.84453929


--------------------------------------------------------------------------------------------------------




--------------------------------------- Iteration      1(  11)  ---------------------------------------


    POTLOK:  cpu time    0.0866: real time    0.0868
    SETDIJ:  cpu time    2.6463: real time    2.6463
    EDDIAG:  cpu time    0.2436: real time    0.2436
  RMM-DIIS:  cpu time    0.3326: real time    0.3326
    ORTHCH:  cpu time    0.0160: real time    0.0160
       DOS:  cpu time    0.0046: real time    0.0046
    CHARGE:  cpu time    0.1803: real time    0.1803
    MIXING:  cpu time    0.0048: real time    0.0048
    --------------------------------------------
      LOOP:  cpu time    3.5145: real time    3.5149

 eigenvalue-minimisations  :  3492
 total energy-change (2. order) : 0.7053847E-01  (-0.1124305E-01)
 number of electron     107.9999786 magnetization       8.2599636
 augmentation part       17.2059135 magnetization       5.9467592

 Broyden mixing:
  rms(total) = 0.88234E+00    rms(broyden)= 0.88233E+00
  rms(prec ) = 0.90920E+00
  weight for this iteration     100.00

 eigenvalues of (default mixing * dielectric matrix)
  average eigenvalue GAMMA=   1.7024
  5.2587  1.2415  1.2415  1.1014  0.7987  0.5728

 Free energy of the ion-electron system (eV)
  ---------------------------------------------------
  alpha Z        PSCENC =       366.09138292
  Ewald energy   TEWEN  =     -5162.14338437
  -Hartree energ DENC   =     -2473.29722055
  -exchange      EXHF   =         0.00000000
  -V(xc)+E(xc)   XCENC  =       269.04986856
  PAW double counting   =     10004.64370420    -9884.53635029
  entropy T*S    EENTRO =        -0.02879267
  eigenvalues    EBANDS =      -647.64214448
  atomic energy  EATOM  =      7429.07371459
  Solvation  Ediel_sol  =         0.00000000
  ---------------------------------------------------
  free energy    TOTEN  =       -98.78922210 eV

  energy without entropy =      -98.76042942  energy(sigma->0) =      -98.77482576


--------------------------------------------------------------------------------------------------------




--------------------------------------- Iteration      1(  12)  ---------------------------------------


    POTLOK:  cpu time    0.1499: real time   11.4922
    SETDIJ:  cpu time    2.6453: real time    2.6454
    EDDIAG:  cpu time    0.2436: real time    0.2436
  RMM-DIIS:  cpu time    0.3302: real time    0.3302
    ORTHCH:  cpu time    0.0155: real time    0.0155
       DOS:  cpu time    0.0047: real time    0.0047
    CHARGE:  cpu time    0.1783: real time    0.1783
    MIXING:  cpu time    0.0047: real time    0.0047
    --------------------------------------------
      LOOP:  cpu time    3.5722: real time   14.9147

 eigenvalue-minimisations  :  3470
 total energy-change (2. order) :-0.3637685E-01  (-0.4260208E-02)
 number of electron     107.9999788 magnetization       6.5540624
 augmentation part       17.2236029 magnetization       4.3192928

 Broyden mixing:
  rms(total) = 0.77254E+00    rms(broyden)= 0.77254E+00
  rms(prec ) = 0.78563E+00
  weight for this iteration     100.00

 eigenvalues of (default mixing * dielectric matrix)
  average eigenvalue GAMMA=   2.0242
  5.8689  2.3793  2.3793  1.1927  0.8890  0.8890  0.5716

 Free energy of the ion-electron system (eV)
  ---------------------------------------------------
  alpha Z        PSCENC =       366.09138292
  Ewald energy   TEWEN  =     -5162.14338437
  -Hartree energ DENC   =     -2474.12386158
  -exchange      EXHF   =         0.00000000
  -V(xc)+E(xc)   XCENC  =       269.07642629
  PAW double counting   =      9892.25226916    -9771.80654595
  entropy T*S    EENTRO =        -0.02782298
  eigenvalues    EBANDS =      -647.21777702
  atomic energy  EATOM  =      7429.07371459
  Solvation  Ediel_sol  =         0.00000000
  ---------------------------------------------------
  free energy    TOTEN  =       -98.82559894 eV

  energy without entropy =      -98.79777596  energy(sigma->0) =      -98.81168745


--------------------------------------------------------------------------------------------------------




--------------------------------------- Iteration      1(  13)  ---------------------------------------


    POTLOK:  cpu time    0.0553: real time    0.5456
    SETDIJ:  cpu time    2.6465: real time    2.6466
    EDDIAG:  cpu time    0.2437: real time    0.2437
  RMM-DIIS:  cpu time    0.3305: real time    0.3305
    ORTHCH:  cpu time    0.0154: real time    0.0154
       DOS:  cpu time    0.0043: real time    0.0043
    CHARGE:  cpu time    0.1786: real time    0.1786
    MIXING:  cpu time    0.0050: real time    0.0050
    --------------------------------------------
      LOOP:  cpu time    3.4794: real time    3.9698

 eigenvalue-minimisations  :  3456
 total energy-change (2. order) :-0.3364616E+00  (-0.5845505E-02)
 number of electron     107.9999785 magnetization       5.4142315
 augmentation part       17.1963366 magnetization       3.7604645

 Broyden mixing:
  rms(total) = 0.84464E+00    rms(broyden)= 0.84462E+00
  rms(prec ) = 0.87798E+00
  weight for this iteration     100.00

 eigenvalues of (default mixing * dielectric matrix)
  average eigenvalue GAMMA=   2.0821
  4.7785  3.8116  3.8116  1.1315  0.9732  0.9732  0.5885  0.5885

 Free energy of the ion-electron system (eV)
  ---------------------------------------------------
  alpha Z        PSCENC =       366.09138292
  Ewald energy   TEWEN  =     -5162.14338437
  -Hartree energ DENC   =     -2472.41217112
  -exchange      EXHF   =         0.00000000
  -V(xc)+E(xc)   XCENC  =       268.73950970
  PAW double counting   =      9930.75763505    -9810.63178028
  entropy T*S    EENTRO =        -0.01494008
  eigenvalues    EBANDS =      -648.62202699
  atomic energy  EATOM  =      7429.07371459
  Solvation  Ediel_sol  =         0.00000000
  ---------------------------------------------------
  free energy    TOTEN  =       -99.16206058 eV

  energy without entropy =      -99.14712050  energy(sigma->0) =      -99.15459054


--------------------------------------------------------------------------------------------------------




--------------------------------------- Iteration      1(  14)  ---------------------------------------


    POTLOK:  cpu time    0.0405: real time    0.0865
    SETDIJ:  cpu time    2.6463: real time    2.6464
    EDDIAG:  cpu time    0.2437: real time    0.2437
  RMM-DIIS:  cpu time    0.3314: real time    0.3314
    ORTHCH:  cpu time    0.0156: real time    0.0156
       DOS:  cpu time    0.0042: real time    0.0042
    CHARGE:  cpu time    0.1784: real time    0.1784
    MIXING:  cpu time    0.0051: real time    0.0051
    --------------------------------------------
      LOOP:  cpu time    3.4649: real time    3.5110

 eigenvalue-minimisations  :  3477
 total energy-change (2. order) :-0.1499844E+00  (-0.1015067E-01)
 number of electron     107.9999787 magnetization       3.4070410
 augmentation part       17.2834184 magnetization       1.8710469

 Broyden mixing:
  rms(total) = 0.61266E+00    rms(broyden)= 0.61265E+00
  rms(prec ) = 0.66294E+00
  weight for this iteration     100.00

 eigenvalues of (default mixing * dielectric matrix)
  average eigenvalue GAMMA=   2.4860
  6.0911  6.0911  4.4378  1.5070  0.5758  0.8672  0.8672  1.0081  0.9283

 Free energy of the ion-electron system (eV)
  ---------------------------------------------------
  alpha Z        PSCENC =       366.09138292
  Ewald energy   TEWEN  =     -5162.14338437
  -Hartree energ DENC   =     -2472.91894999
  -exchange      EXHF   =         0.00000000
  -V(xc)+E(xc)   XCENC  =       268.77799150
  PAW double counting   =      9708.69495731    -9587.94203682
  entropy T*S    EENTRO =        -0.01412033
  eigenvalues    EBANDS =      -648.93159981
  atomic energy  EATOM  =      7429.07371459
  Solvation  Ediel_sol  =         0.00000000
  ---------------------------------------------------
  free energy    TOTEN  =       -99.31204500 eV

  energy without entropy =      -99.29792467  energy(sigma->0) =      -99.30498483


--------------------------------------------------------------------------------------------------------




--------------------------------------- Iteration      1(  15)  ---------------------------------------


    POTLOK:  cpu time    0.0430: real time    0.0865
    SETDIJ:  cpu time    2.6448: real time    2.6449
    EDDIAG:  cpu time    0.2435: real time    0.2436
  RMM-DIIS:  cpu time    0.3270: real time    0.3270
    ORTHCH:  cpu time    0.0157: real time    0.0157
       DOS:  cpu time    0.0044: real time    0.0044
    CHARGE:  cpu time    0.1781: real time    0.1781
    MIXING:  cpu time    0.0053: real time    0.0053
    --------------------------------------------
      LOOP:  cpu time    3.4619: real time    3.5055

 eigenvalue-minimisations  :  3472
 total energy-change (2. order) :-0.1423095E+00  (-0.1329556E-01)
 number of electron     107.9999783 magnetization       2.3506580
 augmentation part       17.2712574 magnetization       1.4168471

 Broyden mixing:
  rms(total) = 0.56771E+00    rms(broyden)= 0.56765E+00
  rms(prec ) = 0.58111E+00
  weight for this iteration     100.00

 eigenvalues of (default mixing * dielectric matrix)
  average eigenvalue GAMMA=   2.6495
  7.4126  7.4126  5.2131  1.5909  0.9982  0.9982  0.8909  0.8909  0.5756  0.5122

 Free energy of the ion-electron system (eV)
  ---------------------------------------------------
  alpha Z        PSCENC =       366.09138292
  Ewald energy   TEWEN  =     -5162.14338437
  -Hartree energ DENC   =     -2473.00432357
  -exchange      EXHF   =         0.00000000
  -V(xc)+E(xc)   XCENC  =       268.63070066
  PAW double counting   =      9664.06190348    -9543.30833108
  entropy T*S    EENTRO =        -0.02052433
  eigenvalues    EBANDS =      -648.83549284
  atomic energy  EATOM  =      7429.07371459
  Solvation  Ediel_sol  =         0.00000000
  ---------------------------------------------------
  free energy    TOTEN  =       -99.45435455 eV

  energy without entropy =      -99.43383021  energy(sigma->0) =      -99.44409238


--------------------------------------------------------------------------------------------------------




--------------------------------------- Iteration      1(  16)  ---------------------------------------


    POTLOK:  cpu time    0.0482: real time    0.0942
    SETDIJ:  cpu time    2.6458: real time    2.6459
    EDDIAG:  cpu time    0.2442: real time    0.2442
  RMM-DIIS:  cpu time    0.3342: real time    0.3342
    ORTHCH:  cpu time    0.0157: real time    0.0157
       DOS:  cpu time    0.0047: real time    0.0047
    CHARGE:  cpu time    0.1792: real time    0.1792
    MIXING:  cpu time    0.0106: real time    0.0154
    --------------------------------------------
      LOOP:  cpu time    3.4826: real time    3.5335

 eigenvalue-minimisations  :  3498
 total energy-change (2. order) :-0.6038200E-01  (-0.4134567E-02)
 number of electron     107.9999785 magnetization       1.6122380
 augmentation part       17.2691781 magnetization       0.8007659

 Broyden mixing:
  rms(total) = 0.40143E+00    rms(broyden)= 0.40142E+00
  rms(prec ) = 0.40631E+00
  weight for this iteration     100.00

 eigenvalues of (default mixing * dielectric matrix)
  average eigenvalue GAMMA=   2.8187
 10.2605  7.3650  5.8429  1.4393  1.0857  1.0857  0.9706  0.5765  0.7584  0.8108
  0.8108

 Free energy of the ion-electron system (eV)
  ---------------------------------------------------
  alpha Z        PSCENC =       366.09138292
  Ewald energy   TEWEN  =     -5162.14338437
  -Hartree energ DENC   =     -2472.93431926
  -exchange      EXHF   =         0.00000000
  -V(xc)+E(xc)   XCENC  =       268.56468375
  PAW double counting   =      9669.28768956    -9548.59846403
  entropy T*S    EENTRO =        -0.01711107
  eigenvalues    EBANDS =      -648.83892863
  atomic energy  EATOM  =      7429.07371459
  Solvation  Ediel_sol  =         0.00000000
  ---------------------------------------------------
  free energy    TOTEN  =       -99.51473655 eV

  energy without entropy =      -99.49762548  energy(sigma->0) =      -99.50618101


--------------------------------------------------------------------------------------------------------




--------------------------------------- Iteration      1(  17)  ---------------------------------------


    POTLOK:  cpu time    0.0409: real time    0.0862
    SETDIJ:  cpu time    2.6449: real time    2.6449
    EDDIAG:  cpu time    0.2444: real time    0.2444
  RMM-DIIS:  cpu time    0.3346: real time    0.3346
    ORTHCH:  cpu time    0.0153: real time    0.0153
       DOS:  cpu time    0.0046: real time    0.0046
    CHARGE:  cpu time    0.1775: real time    0.1775
    MIXING:  cpu time    0.0087: real time    0.0092
    --------------------------------------------
      LOOP:  cpu time    3.4708: real time    3.5167

 eigenvalue-minimisations  :  3497
 total energy-change (2. order) :-0.4620930E-01  (-0.3696036E-02)
 number of electron     107.9999785 magnetization       1.1845356
 augmentation part       17.2338371 magnetization       0.5721740

 Broyden mixing:
  rms(total) = 0.33876E+00    rms(broyden)= 0.33875E+00
  rms(prec ) = 0.35900E+00
  weight for this iteration     100.00

 eigenvalues of (default mixing * dielectric matrix)
  average eigenvalue GAMMA=   2.8623
 11.8716  8.1418  5.3733  1.5826  1.5826  1.0589  0.8849  0.8849  0.8984  0.8984
  0.5747  0.5959

 Free energy of the ion-electron system (eV)
  ---------------------------------------------------
  alpha Z        PSCENC =       366.09138292
  Ewald energy   TEWEN  =     -5162.14338437
  -Hartree energ DENC   =     -2472.69344283
  -exchange      EXHF   =         0.00000000
  -V(xc)+E(xc)   XCENC  =       268.45403973
  PAW double counting   =      9737.81993229    -9617.33722127
  entropy T*S    EENTRO =        -0.01510025
  eigenvalues    EBANDS =      -648.81086665
  atomic energy  EATOM  =      7429.07371459
  Solvation  Ediel_sol  =         0.00000000
  ---------------------------------------------------
  free energy    TOTEN  =       -99.56094585 eV

  energy without entropy =      -99.54584560  energy(sigma->0) =      -99.55339572


--------------------------------------------------------------------------------------------------------




--------------------------------------- Iteration      1(  18)  ---------------------------------------


    POTLOK:  cpu time    0.0440: real time    0.0868
    SETDIJ:  cpu time    2.6442: real time    2.6443
    EDDIAG:  cpu time    0.2431: real time    0.2431
  RMM-DIIS:  cpu time    0.3325: real time    0.3325
    ORTHCH:  cpu time    0.0154: real time    0.0154
       DOS:  cpu time    0.0043: real time    0.0043
    CHARGE:  cpu time    0.1776: real time    0.1777
    MIXING:  cpu time    0.0088: real time    0.0097
    --------------------------------------------
      LOOP:  cpu time    3.4700: real time    3.5138

 eigenvalue-minimisations  :  3499
 total energy-change (2. order) :-0.9096760E-03  (-0.1542903E-02)
 number of electron     107.9999786 magnetization       0.8631371
 augmentation part       17.2407147 magnetization       0.2972345

 Broyden mixing:
  rms(total) = 0.22220E+00    rms(broyden)= 0.22219E+00
  rms(prec ) = 0.23041E+00
  weight for this iteration     100.00

 eigenvalues of (default mixing * dielectric matrix)
  average eigenvalue GAMMA=   3.0107
 13.0614  9.7194  4.8814  2.3130  2.3130  1.0817  0.9870  0.9870  0.8634  0.8634
  0.8601  0.5759  0.6330

 Free energy of the ion-electron system (eV)
  ---------------------------------------------------
  alpha Z        PSCENC =       366.09138292
  Ewald energy   TEWEN  =     -5162.14338437
  -Hartree energ DENC   =     -2472.94790238
  -exchange      EXHF   =         0.00000000
  -V(xc)+E(xc)   XCENC  =       268.46261159
  PAW double counting   =      9719.61333538    -9599.04077521
  entropy T*S    EENTRO =        -0.01417134
  eigenvalues    EBANDS =      -648.65666671
  atomic energy  EATOM  =      7429.07371459
  Solvation  Ediel_sol  =         0.00000000
  ---------------------------------------------------
  free energy    TOTEN  =       -99.56185553 eV

  energy without entropy =      -99.54768419  energy(sigma->0) =      -99.55476986


--------------------------------------------------------------------------------------------------------




--------------------------------------- Iteration      1(  19)  ---------------------------------------


    POTLOK:  cpu time    0.0425: real time    0.0869
    SETDIJ:  cpu time    2.6441: real time    2.6442
    EDDIAG:  cpu time    0.2461: real time    0.2462
  RMM-DIIS:  cpu time    0.3271: real time    0.3271
    ORTHCH:  cpu time    0.0155: real time    0.0155
       DOS:  cpu time    0.0042: real time    0.0042
    CHARGE:  cpu time    0.1774: real time    0.1774
    MIXING:  cpu time    0.0088: real time    0.0091
    --------------------------------------------
      LOOP:  cpu time    3.4659: real time    3.5107

 eigenvalue-minimisations  :  3460
 total energy-change (2. order) :-0.4512070E-02  (-0.2268128E-02)
 number of electron     107.9999788 magnetization       0.7321507
 augmentation part       17.2536661 magnetization       0.1938383

 Broyden mixing:
  rms(total) = 0.86033E-01    rms(broyden)= 0.86014E-01
  rms(prec ) = 0.89386E-01
  weight for this iteration     100.00

 eigenvalues of (default mixing * dielectric matrix)
  average eigenvalue GAMMA=   3.0631
 14.2874  9.8048  5.3266  2.8178  2.3199  1.2295  1.2295  1.1259  0.8490  0.8490
  0.9161  0.9161  0.5759  0.6355

 Free energy of the ion-electron system (eV)
  ---------------------------------------------------
  alpha Z        PSCENC =       366.09138292
  Ewald energy   TEWEN  =     -5162.14338437
  -Hartree energ DENC   =     -2473.67440573
  -exchange      EXHF   =         0.00000000
  -V(xc)+E(xc)   XCENC  =       268.50437953
  PAW double counting   =      9670.10268956    -9549.29096181
  entropy T*S    EENTRO =        -0.01353942
  eigenvalues    EBANDS =      -648.21624287
  atomic energy  EATOM  =      7429.07371459
  Solvation  Ediel_sol  =         0.00000000
  ---------------------------------------------------
  free energy    TOTEN  =       -99.56636759 eV

  energy without entropy =      -99.55282818  energy(sigma->0) =      -99.55959789


--------------------------------------------------------------------------------------------------------




--------------------------------------- Iteration      1(  20)  ---------------------------------------


    POTLOK:  cpu time    0.0418: real time    0.0872
    SETDIJ:  cpu time    2.6428: real time    2.6429
    EDDIAG:  cpu time    0.2434: real time    0.2434
  RMM-DIIS:  cpu time    0.3325: real time    0.3325
    ORTHCH:  cpu time    0.0156: real time    0.0156
       DOS:  cpu time    0.0041: real time    0.0041
    CHARGE:  cpu time    0.1773: real time    0.1773
    MIXING:  cpu time    0.0093: real time    0.0100
    --------------------------------------------
      LOOP:  cpu time    3.4670: real time    3.5132

 eigenvalue-minimisations  :  3475
 total energy-change (2. order) :-0.3708472E-02  (-0.5351933E-03)
 number of electron     107.9999788 magnetization       0.8056205
 augmentation part       17.2438829 magnetization       0.2998842

 Broyden mixing:
  rms(total) = 0.76901E-01    rms(broyden)= 0.76896E-01
  rms(prec ) = 0.81295E-01
  weight for this iteration     100.00

 eigenvalues of (default mixing * dielectric matrix)
  average eigenvalue GAMMA=   3.1812
 13.4822 11.1860  6.0674  5.0533  1.9453  1.9453  1.1227  1.1227  0.8468  0.8468
  0.9744  0.9744  0.9405  0.5759  0.6347

 Free energy of the ion-electron system (eV)
  ---------------------------------------------------
  alpha Z        PSCENC =       366.09138292
  Ewald energy   TEWEN  =     -5162.14338437
  -Hartree energ DENC   =     -2474.11330384
  -exchange      EXHF   =         0.00000000
  -V(xc)+E(xc)   XCENC  =       268.50803339
  PAW double counting   =      9702.87995661    -9582.13590683
  entropy T*S    EENTRO =        -0.01295889
  eigenvalues    EBANDS =      -647.71760964
  atomic energy  EATOM  =      7429.07371459
  Solvation  Ediel_sol  =         0.00000000
  ---------------------------------------------------
  free energy    TOTEN  =       -99.57007607 eV

  energy without entropy =      -99.55711718  energy(sigma->0) =      -99.56359662


--------------------------------------------------------------------------------------------------------




--------------------------------------- Iteration      1(  21)  ---------------------------------------


    POTLOK:  cpu time    0.0417: real time    0.0864
    SETDIJ:  cpu time    2.6456: real time    2.6457
    EDDIAG:  cpu time    0.2443: real time    0.2443
  RMM-DIIS:  cpu time    0.3280: real time    0.3280
    ORTHCH:  cpu time    0.0156: real time    0.0156
       DOS:  cpu time    0.0042: real time    0.0042
    CHARGE:  cpu time    0.1786: real time    0.1786
    MIXING:  cpu time    0.0102: real time    0.0122
    --------------------------------------------
      LOOP:  cpu time    3.4682: real time    3.5150

 eigenvalue-minimisations  :  3463
 total energy-change (2. order) :-0.9006870E-03  (-0.3313719E-03)
 number of electron     107.9999788 magnetization       0.7941402
 augmentation part       17.2498071 magnetization       0.2839409

 Broyden mixing:
  rms(total) = 0.58315E-01    rms(broyden)= 0.58312E-01
  rms(prec ) = 0.60205E-01
  weight for this iteration     100.00

 eigenvalues of (default mixing * dielectric matrix)
  average eigenvalue GAMMA=   3.2703
 15.1634  9.2492  9.2492  4.8801  2.3912  2.3912  1.1671  1.1671  0.8548  0.8548
  0.9564  0.9564  0.9172  0.9172  0.5759  0.6342

 Free energy of the ion-electron system (eV)
  ---------------------------------------------------
  alpha Z        PSCENC =       366.09138292
  Ewald energy   TEWEN  =     -5162.14338437
  -Hartree energ DENC   =     -2474.74551843
  -exchange      EXHF   =         0.00000000
  -V(xc)+E(xc)   XCENC  =       268.55241687
  PAW double counting   =      9676.74941281    -9555.90266943
  entropy T*S    EENTRO =        -0.01227570
  eigenvalues    EBANDS =      -647.23405601
  atomic energy  EATOM  =      7429.07371459
  Solvation  Ediel_sol  =         0.00000000
  ---------------------------------------------------
  free energy    TOTEN  =       -99.57097675 eV

  energy without entropy =      -99.55870105  energy(sigma->0) =      -99.56483890


--------------------------------------------------------------------------------------------------------




--------------------------------------- Iteration      1(  22)  ---------------------------------------


    POTLOK:  cpu time    0.1527: real time    5.5611
    SETDIJ:  cpu time    2.6438: real time    2.6438
    EDDIAG:  cpu time    0.2439: real time    0.2439
  RMM-DIIS:  cpu time    0.3315: real time    0.3315
    ORTHCH:  cpu time    0.0155: real time    0.0155
       DOS:  cpu time    0.0043: real time    0.0043
    CHARGE:  cpu time    0.1770: real time    0.1770
    MIXING:  cpu time    0.0097: real time    0.0105
    --------------------------------------------
      LOOP:  cpu time    3.5783: real time    8.9877

 eigenvalue-minimisations  :  3473
 total energy-change (2. order) :-0.6716385E-03  (-0.1512428E-03)
 number of electron     107.9999788 magnetization       0.8158336
 augmentation part       17.2498910 magnetization       0.3079549

 Broyden mixing:
  rms(total) = 0.41708E-01    rms(broyden)= 0.41706E-01
  rms(prec ) = 0.45789E-01
  weight for this iteration     100.00

 eigenvalues of (default mixing * dielectric matrix)
  average eigenvalue GAMMA=   3.3504
 16.0360 12.6986  7.6849  4.7566  2.6085  2.6085  1.4014  1.4014  1.0450  1.0450
  0.8505  0.8505  0.9422  0.9422  0.8757  0.5759  0.6339

 Free energy of the ion-electron system (eV)
  ---------------------------------------------------
  alpha Z        PSCENC =       366.09138292
  Ewald energy   TEWEN  =     -5162.14338437
  -Hartree energ DENC   =     -2475.07683709
  -exchange      EXHF   =         0.00000000
  -V(xc)+E(xc)   XCENC  =       268.57675905
  PAW double counting   =      9678.76946161    -9557.94984228
  entropy T*S    EENTRO =        -0.01238826
  eigenvalues    EBANDS =      -646.90051457
  atomic energy  EATOM  =      7429.07371459
  Solvation  Ediel_sol  =         0.00000000
  ---------------------------------------------------
  free energy    TOTEN  =       -99.57164839 eV

  energy without entropy =      -99.55926013  energy(sigma->0) =      -99.56545426


--------------------------------------------------------------------------------------------------------




--------------------------------------- Iteration      1(  23)  ---------------------------------------


    POTLOK:  cpu time    0.0458: real time    0.0893
    SETDIJ:  cpu time    2.6449: real time    2.6450
    EDDIAG:  cpu time    0.2434: real time    0.2434
  RMM-DIIS:  cpu time    0.3300: real time    0.3300
    ORTHCH:  cpu time    0.0159: real time    0.0159
       DOS:  cpu time    0.0045: real time    0.0045
    CHARGE:  cpu time    0.1784: real time    0.1785
    MIXING:  cpu time    0.0066: real time    0.0066
    --------------------------------------------
      LOOP:  cpu time    3.4695: real time    3.5131

 eigenvalue-minimisations  :  3473
 total energy-change (2. order) :-0.4914834E-03  (-0.1006327E-03)
 number of electron     107.9999788 magnetization       0.8194688
 augmentation part       17.2470650 magnetization       0.3085759

 Broyden mixing:
  rms(total) = 0.35054E-01    rms(broyden)= 0.35052E-01
  rms(prec ) = 0.40588E-01
  weight for this iteration     100.00

 eigenvalues of (default mixing * dielectric matrix)
  average eigenvalue GAMMA=   3.3626
 16.1676 12.5171  8.3688  5.1664  3.5748  2.3245  2.3245  1.2134  1.2134  0.8517
  0.8517  1.0152  1.0152  0.5759  0.6341  0.8976  0.8976  0.9176

 Free energy of the ion-electron system (eV)
  ---------------------------------------------------
  alpha Z        PSCENC =       366.09138292
  Ewald energy   TEWEN  =     -5162.14338437
  -Hartree energ DENC   =     -2474.90846532
  -exchange      EXHF   =         0.00000000
  -V(xc)+E(xc)   XCENC  =       268.56253229
  PAW double counting   =      9685.22268545    -9564.41063992
  entropy T*S    EENTRO =        -0.01221166
  eigenvalues    EBANDS =      -647.04775387
  atomic energy  EATOM  =      7429.07371459
  Solvation  Ediel_sol  =         0.00000000
  ---------------------------------------------------
  free energy    TOTEN  =       -99.57213988 eV

  energy without entropy =      -99.55992822  energy(sigma->0) =      -99.56603405


--------------------------------------------------------------------------------------------------------




--------------------------------------- Iteration      1(  24)  ---------------------------------------


    POTLOK:  cpu time    0.0419: real time    0.0869
    SETDIJ:  cpu time    2.6456: real time    2.6456
    EDDIAG:  cpu time    0.2434: real time    0.2434
  RMM-DIIS:  cpu time    0.3313: real time    0.3313
    ORTHCH:  cpu time    0.0158: real time    0.0158
       DOS:  cpu time    0.0045: real time    0.0045
    CHARGE:  cpu time    0.1817: real time    0.1817
    MIXING:  cpu time    0.0066: real time    0.0067
    --------------------------------------------
      LOOP:  cpu time    3.4709: real time    3.5159

 eigenvalue-minimisations  :  3457
 total energy-change (2. order) : 0.2100414E-03  (-0.9245167E-04)
 number of electron     107.9999788 magnetization       0.8246795
 augmentation part       17.2560100 magnetization       0.3143266

 Broyden mixing:
  rms(total) = 0.24636E-01    rms(broyden)= 0.24634E-01
  rms(prec ) = 0.27428E-01
  weight for this iteration     100.00

 eigenvalues of (default mixing * dielectric matrix)
  average eigenvalue GAMMA=   3.3266
 16.8573 13.0276  8.4450  5.2196  3.7681  2.4997  2.4997  1.1396  1.1396  1.0493
  1.0493  0.5759  0.6341  0.9344  0.9344  0.8566  0.8566  0.8598  0.8598

 Free energy of the ion-electron system (eV)
  ---------------------------------------------------
  alpha Z        PSCENC =       366.09138292
  Ewald energy   TEWEN  =     -5162.14338437
  -Hartree energ DENC   =     -2474.24910313
  -exchange      EXHF   =         0.00000000
  -V(xc)+E(xc)   XCENC  =       268.53974749
  PAW double counting   =      9672.47773456    -9551.64429559
  entropy T*S    EENTRO =        -0.01198801
  eigenvalues    EBANDS =      -647.70573831
  atomic energy  EATOM  =      7429.07371459
  Solvation  Ediel_sol  =         0.00000000
  ---------------------------------------------------
  free energy    TOTEN  =       -99.57192983 eV

  energy without entropy =      -99.55994183  energy(sigma->0) =      -99.56593583


--------------------------------------------------------------------------------------------------------




--------------------------------------- Iteration      1(  25)  ---------------------------------------


    POTLOK:  cpu time    0.0423: real time    0.0884
    SETDIJ:  cpu time    2.6445: real time    2.6445
    EDDIAG:  cpu time    0.2424: real time    0.2424
  RMM-DIIS:  cpu time    0.3283: real time    0.3283
    ORTHCH:  cpu time    0.0157: real time    0.0157
       DOS:  cpu time    0.0044: real time    0.0044
    CHARGE:  cpu time    0.1775: real time    0.1775
    MIXING:  cpu time    0.0100: real time    0.0103
    --------------------------------------------
      LOOP:  cpu time    3.4651: real time    3.5115

 eigenvalue-minimisations  :  3472
 total energy-change (2. order) : 0.2996881E-04  (-0.1745766E-04)
 number of electron     107.9999788 magnetization       0.8233855
 augmentation part       17.2552868 magnetization       0.3115977

 Broyden mixing:
  rms(total) = 0.22198E-01    rms(broyden)= 0.22198E-01
  rms(prec ) = 0.23819E-01
  weight for this iteration     100.00

 eigenvalues of (default mixing * dielectric matrix)
  average eigenvalue GAMMA=   3.3289
 17.3424 12.7845  8.7418  5.7150  4.2415  2.9268  2.1976  1.4348  1.4348  1.1141
  1.1141  0.8516  0.8516  0.9904  0.9904  0.5759  0.6341  0.8778  0.8778  0.8799

 Free energy of the ion-electron system (eV)
  ---------------------------------------------------
  alpha Z        PSCENC =       366.09138292
  Ewald energy   TEWEN  =     -5162.14338437
  -Hartree energ DENC   =     -2474.06407582
  -exchange      EXHF   =         0.00000000
  -V(xc)+E(xc)   XCENC  =       268.52620829
  PAW double counting   =      9673.39996079    -9552.57093770
  entropy T*S    EENTRO =        -0.01195304
[...]
     14      -5.7011      1.00000
     15      -5.7011      1.00000
     16      -5.7011      1.00000
     17      -5.4700      1.00000
     18      -5.4700      1.00000
     19      -5.4700      1.00000
     20      -5.4700      1.00000
     21      -4.8226      1.00000
     22      -4.8226      1.00000
     23      -4.8226      1.00000
     24      -4.8226      1.00000
     25      -4.0724      1.00000
     26      -4.0724      1.00000
     27      -4.0724      1.00000
     28      -4.0724      1.00000
     29      -3.9740      1.00000
     30      -3.9740      1.00000
     31      -3.9740      1.00000
     32      -3.9740      1.00000
     33      -3.8089      1.00000
     34      -3.8089      1.00000
     35      -3.8089      1.00000
     36      -3.8089      1.00000
     37      -0.5147      1.00000
     38      -0.5147      1.00000
     39      -0.5147      1.00000
     40      -0.5147      1.00000
     41      -0.4268      1.00000
     42      -0.4268      1.00000
     43      -0.4268      1.00000
     44      -0.4268      1.00000
     45       0.1455      1.00000
     46       0.1455      1.00000
     47       0.1455      1.00000
     48       0.1455      1.00000
     49       1.2783      1.00000
     50       1.2783      1.00000
     51       1.2783      1.00000
     52       1.2783      1.00000
     53       1.5921      1.00000
     54       1.5921      1.00000
     55       1.5921      1.00000
     56       1.5921      1.00000
     57       1.7982      0.10635
     58       1.7982      0.10635
     59       1.7982      0.10635
     60       1.7982      0.10635
     61       4.9434      0.00000
     62       4.9434      0.00000
     63       4.9434      0.00000
     64       4.9434      0.00000
     65       5.8147      0.00000
     66       5.8147      0.00000
     67       5.8147      0.00000
     68       5.8147      0.00000
     69       9.9210      0.00000
     70       9.9210      0.00000
     71       9.9210      0.00000
     72       9.9210      0.00000

 k-point    12 :       0.4000    0.5000    0.5000
  band No.  band energies     occupation 
      1     -16.9134      1.00000
      2     -16.9134      1.00000
      3     -16.9134      1.00000
      4     -16.9134      1.00000
      5     -16.5642      1.00000
      6     -16.5642      1.00000
      7     -16.5642      1.00000
      8     -16.5642      1.00000
      9     -16.4776      1.00000
     10     -16.4776      1.00000
     11     -16.4776      1.00000
     12     -16.4776      1.00000
     13      -7.2143      1.00000
     14      -7.2143      1.00000
     15      -7.2143      1.00000
     16      -7.2143      1.00000
     17      -5.6718      1.00000
     18      -5.6718      1.00000
     19      -5.6718      1.00000
     20      -5.6718      1.00000
     21      -5.1570      1.00000
     22      -5.1570      1.00000
     23      -5.1570      1.00000
     24      -5.1570      1.00000
     25      -4.7194      1.00000
     26      -4.7194      1.00000
     27      -4.7194      1.00000
     28      -4.7194      1.00000
     29      -4.6347      1.00000
     30      -4.6347      1.00000
     31      -4.6347      1.00000
     32      -4.6347      1.00000
     33      -3.9800      1.00000
     34      -3.9800      1.00000
     35      -3.9800      1.00000
     36      -3.9800      1.00000
     37      -0.1544      1.00000
     38      -0.1544      1.00000
     39      -0.1544      1.00000
     40      -0.1544      1.00000
     41       0.0455      1.00000
     42       0.0455      1.00000
     43       0.0455      1.00000
     44       0.0455      1.00000
     45       0.2353      1.00000
     46       0.2353      1.00000
     47       0.2353      1.00000
     48       0.2353      1.00000
     49       1.7335      0.71980
     50       1.7335      0.71980
     51       1.7335      0.71980
     52       1.7335      0.71980
     53       2.0526      0.00000
     54       2.0526      0.00000
     55       2.0526      0.00000
     56       2.0526      0.00000
     57       2.1944      0.00000
     58       2.1944      0.00000
     59       2.1944      0.00000
     60       2.1944      0.00000
     61       5.7735      0.00000
     62       5.7735      0.00000
     63       5.7735      0.00000
     64       5.7735      0.00000
     65       7.0376      0.00000
     66       7.0376      0.00000
     67       7.0376      0.00000
     68       7.0376      0.00000
     69      10.8128      0.00000
     70      10.8128      0.00000
     71      10.8128      0.00000
     72      10.8128      0.00000


--------------------------------------------------------------------------------------------------------


 soft charge-density along one line, spin component           1
         0         1         2         3         4         5         6         7         8         9
 total charge-density along one line
 
 soft charge-density along one line, spin component           2
         0         1         2         3         4         5         6         7         8         9
 total charge-density along one line
 
 pseudopotential strength for first ion, spin component:           1
 12.777 -15.594  -0.020   0.000   0.002   0.025  -0.000  -0.002
-15.594  19.055   0.025  -0.000  -0.002  -0.031   0.000   0.003
 -0.020   0.025  -9.187   0.000   0.006  11.169  -0.000  -0.008
  0.000  -0.000   0.000  -9.065   0.000  -0.000  11.010  -0.000
  0.002  -0.002   0.006   0.000  -9.054  -0.008  -0.000  10.994
  0.025  -0.031  11.169  -0.000  -0.008 -13.454   0.000   0.011
 -0.000   0.000  -0.000  11.010  -0.000   0.000 -13.246   0.000
 -0.002   0.003  -0.008  -0.000  10.994   0.011   0.000 -13.224
 pseudopotential strength for first ion, spin component:           2
 12.759 -15.571  -0.020   0.000   0.002   0.025  -0.000  -0.002
-15.571  19.025   0.025  -0.000  -0.002  -0.031   0.000   0.002
 -0.020   0.025  -9.181   0.000   0.006  11.160  -0.000  -0.008
  0.000  -0.000   0.000  -9.032   0.000  -0.000  10.963  -0.000
  0.002  -0.002   0.006   0.000  -9.044  -0.008  -0.000  10.979
  0.025  -0.031  11.160  -0.000  -0.008 -13.443   0.000   0.011
 -0.000   0.000  -0.000  10.963  -0.000   0.000 -13.179   0.000
 -0.002   0.002  -0.008  -0.000  10.979   0.011   0.000 -13.203
 total augmentation occupancy for first ion, spin component:           1
  2.480   0.296   0.067   0.000  -0.002   0.023   0.000  -0.001
  0.296   0.071   0.064   0.000  -0.005   0.010   0.000  -0.001
  0.067   0.064   2.119   0.000  -0.027   0.343   0.000  -0.015
  0.000   0.000   0.000   1.907  -0.000   0.000   0.135   0.000
 -0.002  -0.005  -0.027  -0.000   1.918  -0.015   0.000   0.138
  0.023   0.010   0.343   0.000  -0.015   0.062   0.000  -0.002
  0.000   0.000   0.000   0.135   0.000   0.000   0.018  -0.000
 -0.001  -0.001  -0.015   0.000   0.138  -0.002  -0.000   0.019
 total augmentation occupancy for first ion, spin component:           2
 -0.003  -0.002  -0.000   0.000   0.000  -0.000   0.000   0.000
 -0.002   0.000  -0.001   0.000   0.000  -0.000   0.000  -0.000
 -0.000  -0.001  -0.001   0.000   0.000  -0.001   0.000  -0.000
  0.000   0.000   0.000   0.029  -0.000  -0.000  -0.003   0.000
  0.000   0.000   0.000  -0.000   0.004  -0.000   0.000  -0.001
 -0.000  -0.000  -0.001  -0.000  -0.000  -0.000  -0.000  -0.000
  0.000   0.000   0.000  -0.003   0.000  -0.000  -0.000   0.000
  0.000  -0.000  -0.000   0.000  -0.001  -0.000   0.000  -0.000


------------------------ aborting loop because EDIFF is reached ----------------------------------------


 


 total charge     
 
# of ion       s       p       d       tot
------------------------------------------
    1        1.565   3.417   0.000   4.982
    2        1.565   3.417   0.000   4.982
    3        1.565   3.417   0.000   4.982
    4        1.565   3.417   0.000   4.982
    5        1.570   3.392   0.000   4.962
    6        1.570   3.392   0.000   4.962
    7        1.570   3.392   0.000   4.962
    8        1.570   3.392   0.000   4.962
    9        1.563   3.424   0.000   4.987
   10        1.563   3.424   0.000   4.987
   11        1.563   3.424   0.000   4.987
   12        1.563   3.424   0.000   4.987
   13        0.671   1.049   6.657   8.377
   14        0.671   1.049   6.657   8.377
   15        0.671   1.049   6.657   8.377
   16        0.671   1.049   6.657   8.377
--------------------------------------------------
tot         21.474  45.127  26.628  93.229
 


 magnetization (x)
 
# of ion       s       p       d       tot
------------------------------------------
    1        0.001   0.030   0.000   0.030
    2        0.001   0.030   0.000   0.030
    3        0.001   0.030   0.000   0.030
    4        0.001   0.030   0.000   0.030
    5        0.001  -0.000   0.000   0.000
    6        0.001  -0.000   0.000   0.000
    7        0.001  -0.000   0.000   0.000
    8        0.001  -0.000   0.000   0.000
    9        0.001   0.029   0.000   0.030
   10        0.001   0.029   0.000   0.030
   11        0.001   0.029   0.000   0.030
   12        0.001   0.029   0.000   0.030
   13       -0.000   0.000   0.077   0.077
   14       -0.000   0.000   0.077   0.077
   15       -0.000   0.000   0.077   0.077
   16       -0.000   0.000   0.077   0.077
--------------------------------------------------
tot          0.010   0.232   0.308   0.551
 
    CHARGE:  cpu time    0.1772: real time    0.1772
    FORLOC:  cpu time    0.0023: real time    0.0023
    FORNL :  cpu time    0.1901: real time    0.1901
    STRESS:  cpu time    0.5770: real time    0.5770
    FORCOR:  cpu time    0.0374: real time    0.0374
    FORHAR:  cpu time    0.0049: real time    0.0049
    MIXING:  cpu time    0.0069: real time    0.0069
    OFIELD:  cpu time    0.0001: real time    0.0001

  FORCE on cell =-STRESS in cart. coord.  units (eV):
  Direction    XX          YY          ZZ          XY          YZ          ZX
  --------------------------------------------------------------------------------------
  Alpha Z   381.19607   381.19607   381.19607
  Ewald   -1759.16316 -1748.73429 -1724.30308     0.00000    -0.00000     0.00000
  Hartree   795.15920   814.52876   834.56233    -0.00000    -0.00000    -0.00000
  E(xc)    -520.62175  -520.96402  -520.99351    -0.00000    -0.00000    -0.00000
  Local    -862.42396  -897.80465  -945.13179    -0.00000    -0.00000    -0.00000
  n-local  -282.81635  -279.95902  -279.84429    -0.00000     0.00000    -0.00000
  augment   229.35680   231.51986   232.40981     0.00000     0.00000     0.00000
  Kinetic  2015.19370  2022.27248  2023.66080     0.00000     0.00000    -0.00000
  Fock        0.00000     0.00000     0.00000     0.00000     0.00000     0.00000
  -------------------------------------------------------------------------------------
  Total      -4.11944     2.05519     1.55635     0.00000     0.00000     0.00000
  in kB     -29.68812    14.81142    11.21634     0.00000     0.00000     0.00000
  external pressure =       -1.22 kB  Pullay stress =        0.00 kB


 VOLUME and BASIS-vectors are now :
 -----------------------------------------------------------------------------
  energy-cutoff  :      600.00
  volume of cell :      222.31
      direct lattice vectors                 reciprocal lattice vectors
     3.832943911  0.000000000  0.000000000     0.260896069  0.000000000  0.000000000
     0.000000000  7.646007562  0.000000000     0.000000000  0.130787210  0.000000000
     0.000000000  0.000000000  7.585764945     0.000000000  0.000000000  0.131825862

  length of vectors
     3.832943911  7.646007562  7.585764945     0.260896069  0.130787210  0.131825862


 FORCES acting on ions
    electron-ion (+dipol)            ewald-force                    non-local-force                 convergence-correction
 -----------------------------------------------------------------------------------------------
   -.129E+01 0.240E+02 -.767E-05   0.210E+01 -.333E+02 -.339E-14   -.775E+00 0.840E+01 -.436E-24   0.136E-02 -.349E-02 -.752E-14
   0.129E+01 -.240E+02 0.767E-05   -.210E+01 0.333E+02 0.104E-13   0.775E+00 -.840E+01 -.232E-25   -.136E-02 0.349E-02 0.521E-13
   0.129E+01 0.240E+02 0.952E-05   -.210E+01 -.333E+02 -.372E-14   0.775E+00 0.840E+01 -.684E-25   -.136E-02 -.349E-02 0.527E-14
   -.129E+01 -.240E+02 -.952E-05   0.210E+01 0.333E+02 0.108E-13   -.775E+00 -.840E+01 0.153E-24   0.136E-02 0.349E-02 0.344E-13
   -.261E+02 -.568E+01 0.213E-04   0.364E+02 0.854E+01 0.128E-13   -.925E+01 -.287E+01 -.374E-25   0.385E-03 0.403E-02 -.373E-13
   0.261E+02 0.568E+01 -.213E-04   -.364E+02 -.854E+01 -.237E-13   0.925E+01 0.287E+01 0.394E-25   -.385E-03 -.403E-02 0.190E-13
   0.261E+02 -.568E+01 -.961E-05   -.364E+02 0.854E+01 -.163E-13   0.925E+01 -.287E+01 -.190E-24   -.385E-03 0.403E-02 -.193E-13
   -.261E+02 0.568E+01 0.961E-05   0.364E+02 -.854E+01 0.158E-13   -.925E+01 0.287E+01 0.191E-24   0.385E-03 -.403E-02 0.505E-13
   -.329E-10 -.715E-11 0.151E-10   -.167E-14 0.524E-13 -.568E-13   0.425E-24 -.157E-23 -.118E-23   -.349E-13 0.427E-13 -.100E-12
   -.324E-10 -.757E-11 0.143E-10   0.722E-15 0.488E-13 0.284E-13   -.194E-23 0.477E-24 -.108E-23   -.136E-13 0.280E-13 0.152E-12
   -.330E-10 -.704E-11 0.152E-10   0.178E-14 -.409E-13 -.853E-13   0.136E-23 0.417E-24 0.264E-23   -.281E-13 0.234E-13 -.253E-14
   -.325E-10 -.663E-11 0.142E-10   0.000E+00 -.373E-13 0.000E+00   -.452E-24 -.139E-23 0.208E-23   -.103E-13 0.339E-13 0.122E-13
   0.469E+01 -.581E+01 0.860E-06   -.497E+01 0.565E+01 0.420E-14   -.150E+01 0.137E+01 0.178E-24   0.417E-03 0.341E-02 -.431E-13
   -.469E+01 0.581E+01 -.860E-06   0.497E+01 -.565E+01 0.319E-13   0.150E+01 -.137E+01 -.180E-24   -.417E-03 -.341E-02 0.306E-13
   -.469E+01 -.581E+01 -.996E-06   0.497E+01 0.565E+01 0.270E-13   0.150E+01 0.137E+01 0.411E-24   -.417E-03 0.341E-02 -.311E-14
   0.469E+01 0.581E+01 0.996E-06   -.497E+01 -.565E+01 0.293E-13   -.150E+01 -.137E+01 0.101E-24   0.417E-03 -.341E-02 0.279E-13
 -----------------------------------------------------------------------------------------------
   -.338E-09 -.875E-10 0.129E-09   -.888E-15 0.444E-14 -.187E-13   0.444E-15 -.444E-15 0.260E-23   -.360E-12 0.349E-12 0.171E-12
 
 
 POSITION                                       TOTAL-FORCE (eV/Angst)
 -----------------------------------------------------------------------------------
      3.82693      1.86601      1.89644         0.037095     -0.923771      0.000000
      0.00602      5.78000      5.68932        -0.037095      0.923771      0.000000
      0.00602      5.68901      1.89644        -0.037095     -0.923771     -0.000000
      3.82693      1.95700      5.68932         0.037095      0.923771     -0.000000
      1.94139      7.59593      1.89644         1.111130     -0.007886      0.000000
      1.89156      0.05008      5.68932        -1.111130      0.007886     -0.000000
      1.89156      3.77292      1.89644        -1.111130     -0.007886      0.000000
      1.94139      3.87309      5.68932         1.111130      0.007886     -0.000000
      0.00000      0.00000      0.00000        -0.000000      0.000000     -0.000000
      0.00000      0.00000      3.79288         0.000000      0.000000     -0.000000
      0.00000      3.82300      3.79288         0.000000      0.000000     -0.000000
      0.00000      3.82300      0.00000        -0.000000      0.000000     -0.000000
      0.11369      7.52122      1.89644        -1.780218      1.210043     -0.000000
      3.71926      0.12478      5.68932         1.780218     -1.210043      0.000000
      3.71926      3.69822      1.89644         1.780218      1.210043     -0.000000
      0.11369      3.94779      5.68932        -1.780218     -1.210043      0.000000
 -----------------------------------------------------------------------------------
    total drift:                               -0.000000     -0.000000      0.000000


--------------------------------------------------------------------------------------------------------



  FREE ENERGIE OF THE ION-ELECTRON SYSTEM (eV)
  ---------------------------------------------------
  free  energy   TOTEN  =       -99.77043092 eV

  energy  without entropy=      -99.75479996  energy(sigma->0) =      -99.76261544
 
 d Force = 0.0000000E+00[ 0.000E+00, 0.000E+00]  d Energy = 0.1989295E-01-0.199E-01
 d Force = 0.0000000E+00[ 0.000E+00, 0.000E+00]  d Ewald  =-0.2260319E+02 0.226E+02


--------------------------------------------------------------------------------------------------------


    POTLOK:  cpu time    2.6799: real time    2.6800


--------------------------------------------------------------------------------------------------------


 stress matrix after NEB project (eV)
     -4.11944      0.00000      0.00000
      0.00000      2.05519      0.00000
     -0.00000      0.00000      1.55635
  FORCES: max atom, RMS     2.152529    1.296416
  FORCE total and by dimension    5.185666    1.780218
  Stress total and by dimension    4.859615    4.119444


--------------------------------------------------------------------------------------------------------


  
 reached required accuracy - stopping structural energy minimisation
 writing wavefunctions
     LOOP+:  cpu time   50.8092: real time   62.4671
    4ORBIT:  cpu time    0.0000: real time    0.0000
 


 total charge     
 
# of ion       s       p       d       tot
------------------------------------------
    1        1.565   3.417   0.000   4.982
    2        1.565   3.417   0.000   4.982
    3        1.565   3.417   0.000   4.982
    4        1.565   3.417   0.000   4.982
    5        1.570   3.392   0.000   4.962
    6        1.570   3.392   0.000   4.962
    7        1.570   3.392   0.000   4.962
    8        1.570   3.392   0.000   4.962
    9        1.563   3.424   0.000   4.987
   10        1.563   3.424   0.000   4.987
   11        1.563   3.424   0.000   4.987
   12        1.563   3.424   0.000   4.987
   13        0.671   1.049   6.657   8.377
   14        0.671   1.049   6.657   8.377
   15        0.671   1.049   6.657   8.377
   16        0.671   1.049   6.657   8.377
--------------------------------------------------
tot         21.474  45.127  26.628  93.229
 


 magnetization (x)
 
# of ion       s       p       d       tot
------------------------------------------
    1        0.001   0.030   0.000   0.030
    2        0.001   0.030   0.000   0.030
    3        0.001   0.030   0.000   0.030
    4        0.001   0.030   0.000   0.030
    5        0.001  -0.000   0.000   0.000
    6        0.001  -0.000   0.000   0.000
    7        0.001  -0.000   0.000   0.000
    8        0.001  -0.000   0.000   0.000
    9        0.001   0.029   0.000   0.030
   10        0.001   0.029   0.000   0.030
   11        0.001   0.029   0.000   0.030
   12        0.001   0.029   0.000   0.030
   13       -0.000   0.000   0.077   0.077
   14       -0.000   0.000   0.077   0.077
   15       -0.000   0.000   0.077   0.077
   16       -0.000   0.000   0.077   0.077
--------------------------------------------------
tot          0.010   0.232   0.308   0.551
 

 total amount of memory used by VASP MPI-rank0    37984. kBytes
=======================================================================

   base      :      30000. kBytes
   nonlr-proj:       2328. kBytes
   fftplans  :        630. kBytes
   grid      :       1564. kBytes
   one-center:         62. kBytes
   wavefun   :       3400. kBytes
 
  
  
 General timing and accounting informations for this job:
 ========================================================
  
                  Total CPU time used (sec):      332.503
                            User time (sec):      325.107
                          System time (sec):        7.396
                         Elapsed time (sec):      411.927
  
                   Maximum memory used (kb):      220224.
                   Average memory used (kb):           0.
  
                          Minor page faults:        41914
                          Major page faults:          436
                 Voluntary context switches:         3694
