 vasp.5.4.4.18Apr17-6-g9f103f2a35 (build Aug 21 2019 12:36:18) complex          
  
 executed on IFC18.0.1.163_CrayMP date 2019.08.29  06:36:37
 running on  330 total cores
 distrk:  each k-point on   66 cores,    5 groups
 distr:  one band on NCORES_PER_BAND=  11 cores,    6 groups


--------------------------------------------------------------------------------------------------------


 INCAR:
 POTCAR:    PAW_PBE O 08Apr2002                   
 POTCAR:    PAW_PBE Ir 06Sep2000                  

 ----------------------------------------------------------------------------- 
|                                                                             |
|           W    W    AA    RRRRR   N    N  II  N    N   GGGG   !!!           |
|           W    W   A  A   R    R  NN   N  II  NN   N  G    G  !!!           |
|           W    W  A    A  R    R  N N  N  II  N N  N  G       !!!           |
|           W WW W  AAAAAA  RRRRR   N  N N  II  N  N N  G  GGG   !            |
|           WW  WW  A    A  R   R   N   NN  II  N   NN  G    G                |
|           W    W  A    A  R    R  N    N  II  N    N   GGGG   !!!           |
|                                                                             |
|      You have enabled k-point parallelism (KPAR>1).                         |
|      This developmental code was originally  written by Paul Kent at ORNL,  |
|      and carefully double checked in Vienna.                                |
|      GW as well as linear response parallelism added by Martijn Marsman     |
|      and Georg Kresse.                                                      |
|      Carefully verify results versus KPAR=1.                                |
|      Report problems to Paul Kent and Vienna.                               |
|                                                                             |
 ----------------------------------------------------------------------------- 

 POTCAR:    PAW_PBE O 08Apr2002                   
   VRHFIN =O: s2p4                                                              
   LEXCH  = PE                                                                  
   EATOM  =   432.3788 eV,   31.7789 Ry                                         
                                                                                
   TITEL  = PAW_PBE O 08Apr2002                                                 
   LULTRA =        F    use ultrasoft PP ?                                      
   IUNSCR =        1    unscreen: 0-lin 1-nonlin 2-no                           
   RPACOR =    1.200    partial core radius                                     
   POMASS =   16.000; ZVAL   =    6.000    mass and valenz                      
   RCORE  =    1.520    outmost cutoff radius                                   
   RWIGS  =    1.550; RWIGS  =    0.820    wigner-seitz radius (au A)           
   ENMAX  =  400.000; ENMIN  =  300.000 eV                                      
   ICORE  =        2    local potential                                         
   LCOR   =        T    correct aug charges                                     
   LPAW   =        T    paw PP                                                  
   EAUG   =  605.392                                                            
   DEXC   =    0.000                                                            
   RMAX   =    1.553    core radius for proj-oper                               
   RAUG   =    1.300    factor for augmentation sphere                          
   RDEP   =    1.550    radius for radial grids                                 
   RDEPT  =    1.329    core radius for aug-charge                              
                                                                                
   Atomic configuration                                                         
    4 entries                                                                   
     n  l   j            E        occ.                                          
     1  0  0.50      -514.6923   2.0000                                         
     2  0  0.50       -23.9615   2.0000                                         
     2  1  0.50        -9.0305   4.0000                                         
     3  2  1.50        -9.5241   0.0000                                         
   Description                                                                  
     l       E           TYP  RCUT    TYP  RCUT                                 
     0    -23.9615318     23  1.200                                             
     0     -9.5240782     23  1.200                                             
     1     -9.0304911     23  1.520                                             
     1      8.1634956     23  1.520                                             
     2     -9.5240782      7  1.500                                             
  local pseudopotential read in
  partial core-charges read in
  partial kinetic energy density read in
  kinetic energy density of atom read in
  atomic valenz-charges read in
  non local Contribution for L=           0  read in
    real space projection operators read in
  non local Contribution for L=           0  read in
    real space projection operators read in
  non local Contribution for L=           1  read in
    real space projection operators read in
  non local Contribution for L=           1  read in
    real space projection operators read in
    PAW grid and wavefunctions read in
 
   number of l-projection  operators is LMAX  =           4
   number of lm-projection operators is LMMAX =           8
 
 POTCAR:    PAW_PBE Ir 06Sep2000                  
   VRHFIN =Ir: s1d8                                                             
   LEXCH  = PE                                                                  
   EATOM  =   560.1833 eV,   41.1723 Ry                                         
                                                                                
   TITEL  = PAW_PBE Ir 06Sep2000                                                
   LULTRA =        F    use ultrasoft PP ?                                      
   IUNSCR =        1    unscreen: 0-lin 1-nonlin 2-no                           
   RPACOR =    2.250    partial core radius                                     
   POMASS =  192.220; ZVAL   =    9.000    mass and valenz                      
   RCORE  =    2.600    outmost cutoff radius                                   
   RWIGS  =    2.690; RWIGS  =    1.423    wigner-seitz radius (au A)           
   ENMAX  =  210.864; ENMIN  =  158.148 eV                                      
   RCLOC  =    1.857    cutoff for local pot                                    
   LCOR   =        T    correct aug charges                                     
   LPAW   =        T    paw PP                                                  
   EAUG   =  318.962                                                            
   DEXC   =    0.000                                                            
   RMAX   =    2.667    core radius for proj-oper                               
   RAUG   =    1.300    factor for augmentation sphere                          
   RDEP   =    2.748    radius for radial grids                                 
   RDEPT  =    2.300    core radius for aug-charge                              
                                                                                
   Atomic configuration                                                         
   16 entries                                                                   
     n  l   j            E        occ.                                          
     1  0  0.50    -76100.0449   2.0000                                         
     2  0  0.50    -13308.1683   2.0000                                         
     2  1  1.50    -11558.0021   6.0000                                         
     3  0  0.50     -3110.7274   2.0000                                         
     3  1  1.50     -2599.2109   6.0000                                         
     3  2  2.50     -2037.1515  10.0000                                         
     4  0  0.50      -661.6001   2.0000                                         
     4  1  1.50      -493.8981   6.0000                                         
     4  2  2.50      -288.1909  10.0000                                         
     4  3  3.50       -59.5718  14.0000                                         
     5  0  0.50       -95.3879   2.0000                                         
     5  1  1.50       -52.2747   6.0000                                         
     5  2  2.50        -5.4180   8.0000                                         
     6  0  0.50        -5.5479   1.0000                                         
     6  1  1.50        -6.8029   0.0000                                         
     5  3  2.50        -1.3606   0.0000                                         
   Description                                                                  
     l       E           TYP  RCUT    TYP  RCUT                                 
     2     -5.4179967     23  2.600                                             
     2     -6.7785793     23  2.600                                             
     0     -5.5478636     23  2.600                                             
     0      2.2542272     23  2.600                                             
     1     -2.7211652     23  2.600                                             
     1     20.4087390     23  2.600                                             
  local pseudopotential read in
  partial core-charges read in
  partial kinetic energy density read in
  atomic valenz-charges read in
  non local Contribution for L=           2  read in
    real space projection operators read in
  non local Contribution for L=           2  read in
    real space projection operators read in
  non local Contribution for L=           0  read in
    real space projection operators read in
  non local Contribution for L=           0  read in
    real space projection operators read in
  non local Contribution for L=           1  read in
    real space projection operators read in
  non local Contribution for L=           1  read in
    real space projection operators read in
    PAW grid and wavefunctions read in
 
   number of l-projection  operators is LMAX  =           6
   number of lm-projection operators is LMMAX =          18
 
 Optimization of the real space projectors (new method)

 maximal supplied QI-value         = 24.76
 optimisation between [QCUT,QGAM] = [ 12.38, 25.00] = [ 42.90,175.06] Ry 
 Optimized for a Real-space Cutoff    1.16 Angstroem

   l    n(q)    QCUT    max X(q) W(low)/X(q) W(high)/X(q)  e(spline) 
   0      9    12.378    20.381    0.16E-03    0.67E-05    0.31E-06
   0      9    12.378    15.268    0.17E-03    0.81E-05    0.33E-06
   1      8    12.378     5.964    0.20E-03    0.16E-03    0.30E-06
   1      8    12.378     5.382    0.18E-03    0.14E-03    0.26E-06
 Optimization of the real space projectors (new method)

 maximal supplied QI-value         = 14.36
 optimisation between [QCUT,QGAM] = [ 12.49, 24.99] = [ 43.72,174.87] Ry 
 Optimized for a Real-space Cutoff    1.47 Angstroem

   l    n(q)    QCUT    max X(q) W(low)/X(q) W(high)/X(q)  e(spline) 
   2     10    12.495   134.116    0.21E-03    0.83E-03    0.17E-05
   2     10    12.495   130.192    0.21E-03    0.83E-03    0.17E-05
   0     11    12.495    60.310    0.70E-04    0.17E-03    0.90E-06
   0     11    12.495    39.218    0.65E-04    0.15E-03    0.85E-06
   1     11    12.495    18.439    0.21E-03    0.37E-04    0.78E-06
   1     11    12.495    12.760    0.17E-03    0.26E-04    0.62E-06
  PAW_PBE O 08Apr2002                   :
 energy of atom  1       EATOM= -432.3788
 kinetic energy error for atom=    0.0168 (will be added to EATOM!!)
  PAW_PBE Ir 06Sep2000                  :
 energy of atom  2       EATOM= -560.1833
 kinetic energy error for atom=    0.0008 (will be added to EATOM!!)
 
 
 POSCAR:  O Ir                                   
  positions in cartesian coordinates
  No initial velocities read in
 exchange correlation table for  LEXCH =        8
   RHO(1)=    0.500       N(1)  =     2000
   RHO(2)=  100.500       N(2)  =     4000

 VTST: version 3.2, (02/03/18)

 CHAIN: initializing optimizer
 
 OPT: Using VASP Conjugate-Gradient optimizer
 CHAIN: Read ICHAIN            0
 
 POSCAR:  O Ir                                   
  positions in cartesian coordinates
  No initial velocities read in
 


--------------------------------------------------------------------------------------------------------


 ion  position               nearest neighbor table
   1  0.000  0.250  0.250-  13 1.91  15 1.91
   2  1.000  0.750  0.750-  14 1.91  16 1.91
   3  1.000  0.750  0.250-  13 1.91  15 1.91
   4  0.000  0.250  0.750-  14 1.91  16 1.91
   5  0.500  0.000  0.250-  13 1.88  13 1.88
   6  0.500  1.000  0.750-  14 1.88  14 1.88
   7  0.500  0.500  0.250-  15 1.88  15 1.88
   8  0.500  0.500  0.750-  16 1.88  16 1.88
   9  0.000  0.000  0.000-  13 1.91  14 1.91
  10  0.000  0.000  0.500-  13 1.91  14 1.91
  11  0.000  0.500  0.500-  15 1.91  16 1.91
  12  0.000  0.500  0.000-  15 1.91  16 1.91
  13  0.000  0.000  0.250-   5 1.88   5 1.88  10 1.91   9 1.91   1 1.91   3 1.91
  14  0.000  1.000  0.750-   6 1.88   6 1.88  10 1.91   9 1.91   2 1.91   4 1.91
  15  0.000  0.500  0.250-   7 1.88   7 1.88  12 1.91  11 1.91   1 1.91   3 1.91
  16  0.000  0.500  0.750-   8 1.88   8 1.88  12 1.91  11 1.91   2 1.91   4 1.91
 
  LATTYP: Found a simple orthorhombic cell.
 ALAT       =     3.7669800000
 B/A-ratio  =     2.0231591354
 C/A-ratio  =     2.0232201923
  
  Lattice vectors:
  
 A1 = (  -3.7669800000,   0.0000000000,   0.0000000000)
 A2 = (   0.0000000000,   0.0000000000,  -7.6212000000)
 A3 = (   0.0000000000,  -7.6214300000,   0.0000000000)


Analysis of symmetry for initial positions (statically):
=====================================================================
 Subroutine PRICEL returns:
 Original cell was already a primitive cell.
 

 Routine SETGRP: Setting up the symmetry group for a 
 simple orthorhombic supercell.


 Subroutine GETGRP returns: Found  8 space group operations
 (whereof  2 operations were pure point group operations)
 out of a pool of  8 trial point group operations.


The static configuration has the point symmetry S_2 .
 The point group associated with its full space group is D_2h.


Analysis of symmetry for dynamics (positions and initial velocities):
=====================================================================
 Subroutine PRICEL returns:
 Original cell was already a primitive cell.
 

 Routine SETGRP: Setting up the symmetry group for a 
 simple orthorhombic supercell.


 Subroutine GETGRP returns: Found  8 space group operations
 (whereof  2 operations were pure point group operations)
 out of a pool of  8 trial point group operations.


The dynamic configuration has the point symmetry S_2 .
 The point group associated with its full space group is D_2h.


Analysis of structural, dynamic, and magnetic symmetry:
=====================================================================
 Subroutine PRICEL returns:
 Original cell was already a primitive cell.
 

 Routine SETGRP: Setting up the symmetry group for a 
 simple orthorhombic supercell.


 Subroutine GETGRP returns: Found  8 space group operations
 (whereof  2 operations were pure point group operations)
 out of a pool of  8 trial point group operations.


The magnetic configuration has the point symmetry S_2 .
 The point group associated with its full space group is D_2h.


 Subroutine INISYM returns: Found  8 space group operations
 (whereof  2 operations are pure point group operations),
 and found     1 'primitive' translations

 
 
 KPOINTS: KPOINTS created by Atomic Simulation Env

Automatic generation of k-mesh.
Space group operators:
 irot       det(A)        alpha          n_x          n_y          n_z        tau_x        tau_y        tau_z
    1     1.000000     0.000001     1.000000     0.000000     0.000000     0.000000     0.000000     0.000000
    2    -1.000000     0.000001     1.000000     0.000000     0.000000     0.000000     0.000000     0.000000
    3     1.000000   180.000000     0.000000     1.000000     0.000000     0.000000    -0.500000    -0.500000
    4    -1.000000   180.000000     0.000000     1.000000     0.000000     0.000000    -0.500000    -0.500000
    5     1.000000   180.000000     0.000000     0.000000     1.000000     0.000000     0.000000    -0.500000
    6    -1.000000   180.000000     0.000000     0.000000     1.000000     0.000000     0.000000    -0.500000
    7     1.000000   179.999999     1.000000     0.000000     0.000000     0.000000    -0.500000     0.000000
    8    -1.000000   179.999999     1.000000     0.000000     0.000000     0.000000    -0.500000     0.000000
 
 Subroutine IBZKPT returns following result:
 ===========================================
 
 Found     12 irreducible k-points:
 
 Following reciprocal coordinates:
            Coordinates               Weight
  0.000000  0.000000  0.000000      1.000000
  0.200000  0.000000  0.000000      2.000000
  0.400000  0.000000  0.000000      2.000000
  0.000000  0.500000  0.000000      1.000000
  0.200000  0.500000  0.000000      2.000000
  0.400000  0.500000  0.000000      2.000000
  0.000000  0.000000  0.500000      1.000000
  0.200000  0.000000  0.500000      2.000000
  0.400000  0.000000  0.500000      2.000000
  0.000000  0.500000  0.500000      1.000000
  0.200000  0.500000  0.500000      2.000000
  0.400000  0.500000  0.500000      2.000000
 
 Following cartesian coordinates:
            Coordinates               Weight
  0.000000  0.000000  0.000000      1.000000
  0.053093  0.000000  0.000000      2.000000
  0.106186  0.000000  0.000000      2.000000
  0.000000  0.065604  0.000000      1.000000
  0.053093  0.065604  0.000000      2.000000
  0.106186  0.065604  0.000000      2.000000
  0.000000  0.000000  0.065606      1.000000
  0.053093  0.000000  0.065606      2.000000
  0.106186  0.000000  0.065606      2.000000
  0.000000  0.065604  0.065606      1.000000
  0.053093  0.065604  0.065606      2.000000
  0.106186  0.065604  0.065606      2.000000
 


--------------------------------------------------------------------------------------------------------




 Dimension of arrays:
   k-points           NKPTS =     12   k-points in BZ     NKDIM =     12   number of bands    NBANDS=     72
   number of dos      NEDOS =    301   number of ions     NIONS =     16
   non local maximal  LDIM  =      6   non local SUM 2l+1 LMDIM =     18
   total plane-waves  NPLWV = 122880
   max r-space proj   IRMAX =   7533   max aug-charges    IRDMAX=  40805
   dimension x,y,z NGX =    30 NGY =   64 NGZ =   64
   dimension x,y,z NGXF=    60 NGYF=  128 NGZF=  128
   support grid    NGXF=    60 NGYF=  128 NGZF=  128
   ions per type =              12   4
   NGX,Y,Z   is equivalent  to a cutoff of  13.24, 13.96, 13.96 a.u.
   NGXF,Y,Z  is equivalent  to a cutoff of  26.48, 27.92, 27.92 a.u.

 SYSTEM =  unknown system                          
 POSCAR =   O Ir                                   

 Startparameter for this run:
   NWRITE =      2    write-flag & timer
   PREC   = accura    normal or accurate (medium, high low for compatibility)
   ISTART =      0    job   : 0-new  1-cont  2-samecut
   ICHARG =      2    charge: 1-file 2-atom 10-const
   ISPIN  =      2    spin polarized calculation?
   LNONCOLLINEAR =      F non collinear calculations
   LSORBIT =      F    spin-orbit coupling
   INIWAV =      1    electr: 0-lowe 1-rand  2-diag
   LASPH  =      T    aspherical Exc in radial PAW
   METAGGA=      F    non-selfconsistent MetaGGA calc.

 Electronic Relaxation 1
   ENCUT  =  600.0 eV  44.10 Ry    6.64 a.u.   7.52 15.22 15.22*2*pi/ulx,y,z
   ENINI  =  600.0     initial cutoff
   ENAUG  =  605.4 eV  augmentation charge cutoff
   NELM   =    220;   NELMIN=  2; NELMDL= -5     # of ELM steps 
   EDIFF  = 0.1E-05   stopping-criterion for ELM
   LREAL  =      T    real-space projection
   NLSPLINE    = F    spline interpolate recip. space projectors
   LCOMPAT=      F    compatible to vasp.4.4
   GGA_COMPAT  = T    GGA compatible to vasp.4.4-vasp.4.6
   LMAXPAW     = -100 max onsite density
   LMAXMIX     =    6 max onsite mixed and CHGCAR
   VOSKOWN=      0    Vosko Wilk Nusair interpolation
   ROPT   =   -0.00025  -0.00025
 Ionic relaxation
   EDIFFG = -.1E-02   stopping-criterion for IOM
   NSW    =    150    number of steps for IOM
   NBLOCK =      1;   KBLOCK =    150    inner block; outer block 
   IBRION =      2    ionic relax: 0-MD 1-quasi-New 2-CG
   NFREE  =      1    steps in history (QN), initial steepest desc. (CG)
   ISIF   =      3    stress and relaxation
   IWAVPR =     11    prediction:  0-non 1-charg 2-wave 3-comb
   ISYM   =      2    0-nonsym 1-usesym 2-fastsym
   LCORR  =      T    Harris-Foulkes like correction to forces

   POTIM  = 0.0300    time-step for ionic-motion
   TEIN   =    0.0    initial temperature
   TEBEG  =    0.0;   TEEND  =   0.0 temperature during run
   SMASS  =  -3.00    Nose mass-parameter (am)
   estimated Nose-frequenzy (Omega)   =  0.10E-29 period in steps =****** mass=  -0.324E-27a.u.
   SCALEE = 1.0000    scale energy and forces
   NPACO  =    256;   APACO  = 16.0  distance and # of slots for P.C.
   PSTRESS=    0.0 pullay stress

  Mass of Ions in am
   POMASS =  16.00192.22
  Ionic Valenz
   ZVAL   =   6.00  9.00
  Atomic Wigner-Seitz radii
   RWIGS  =  -1.00 -1.00
  virtual crystal weights 
   VCA    =   1.00  1.00
   NELECT =     108.0000    total number of electrons
   NUPDOWN=      -1.0000    fix difference up-down

 DOS related values:
   EMIN   =  10.00;   EMAX   =-10.00  energy-range for DOS
   EFERMI =   0.00
   ISMEAR =     0;   SIGMA  =   0.05  broadening in eV -4-tet -1-fermi 0-gaus

 Electronic relaxation 2 (details)
   IALGO  =     68    algorithm
   LDIAG  =      T    sub-space diagonalisation (order eigenvalues)
   LSUBROT=      F    optimize rotation matrix (better conditioning)
   TURBO    =      0    0=normal 1=particle mesh
   IRESTART =      0    0=no restart 2=restart with 2 vectors
   NREBOOT  =      0    no. of reboots
   NMIN     =      0    reboot dimension
   EREF     =   0.00    reference energy to select bands
   IMIX   =      4    mixing-type and parameters
     AMIX     =   0.20;   BMIX     =  0.00
     AMIX_MAG =   0.10;   BMIX_MAG =  0.00
     AMIN     =   0.10
     WC   =   100.;   INIMIX=   0;  MIXPRE=   1;  MAXMIX= -45

 Intra band minimization:
   WEIMIN = 0.0010     energy-eigenvalue tresh-hold
   EBREAK =  0.35E-08  absolut break condition
   DEPER  =   0.30     relativ break condition  

   TIME   =   0.40     timestep for ELM

  volume/ion in A,a.u.               =      13.68        92.28
  Fermi-wavevector in a.u.,A,eV,Ry     =   1.293794  2.444916 22.774822  1.673902
  Thomas-Fermi vector in A             =   2.425417
 
 Write flags
   LWAVE        =      T    write WAVECAR
   LDOWNSAMPLE  =      F    k-point downsampling of WAVECAR
   LCHARG       =      T    write CHGCAR
   LVTOT        =      F    write LOCPOT, total local potential
   LVHAR        =      F    write LOCPOT, Hartree potential only
   LELF         =      F    write electronic localiz. function (ELF)
   LORBIT       =     11    0 simple, 1 ext, 2 COOP (PROOUT), +10 PAW based schemes


 Dipole corrections
   LMONO  =      F    monopole corrections only (constant potential shift)
   LDIPOL =      F    correct potential (dipole corrections)
   IDIPOL =      0    1-x, 2-y, 3-z, 4-all directions 
   EPSILON=  1.0000000 bulk dielectric constant

 Exchange correlation treatment:
   GGA     =    PE    GGA type
   LEXCH   =     8    internal setting for exchange type
   VOSKOWN=      0    Vosko Wilk Nusair interpolation
   LHFCALC =     F    Hartree Fock is set to
   LHFONE  =     F    Hartree Fock one center treatment
   AEXX    =    0.0000 exact exchange contribution

 Linear response parameters
   LEPSILON=     F    determine dielectric tensor
   LRPA    =     F    only Hartree local field effects (RPA)
   LNABLA  =     F    use nabla operator in PAW spheres
   LVEL    =     F    velocity operator in full k-point grid
   LINTERFAST=   F  fast interpolation
   KINTER  =     0    interpolate to denser k-point grid
   CSHIFT  =0.1000    complex shift for real part using Kramers Kronig
   OMEGAMAX=  -1.0    maximum frequency
   DEG_THRESHOLD= 0.2000000E-02 threshold for treating states as degnerate
   RTIME   =   -0.100 relaxation time in fs
  (WPLASMAI=    0.000 imaginary part of plasma frequency in eV, 0.658/RTIME)
   DFIELD  = 0.0000000 0.0000000 0.0000000 field for delta impulse in time
 
 Orbital magnetization related:
   ORBITALMAG=     F  switch on orbital magnetization
   LCHIMAG   =     F  perturbation theory with respect to B field
   DQ        =  0.001000  dq finite difference perturbation B field
   LLRAUG    =     F  two centre corrections for induced B field



--------------------------------------------------------------------------------------------------------


 conjugate gradient relaxation of ions
 charge density and potential will be updated during run
 spin polarized calculation
 RMM-DIIS sequential band-by-band and
  variant of blocked Davidson during initial phase
 perform sub-space diagonalisation
    before iterative eigenvector-optimisation
 modified Broyden-mixing scheme, WC =      100.0
 initial mixing is a simple linear mixing with ALPHA =  0.2000
 Hartree-type preconditioning will be used
 using additional bands           18
 real space projection scheme for non local part
 use partial core corrections
 calculate Harris-corrections to forces 
   (improved forces if not selfconsistent)
 use gradient corrections 
 use of overlap-Matrix (Vanderbilt PP)
 Gauss-broadening in eV      SIGMA  =   0.05


--------------------------------------------------------------------------------------------------------


  energy-cutoff  :      600.00
  volume of cell :      218.80
      direct lattice vectors                 reciprocal lattice vectors
     3.766980000  0.000000000  0.000000000     0.265464643  0.000000000  0.000000000
     0.000000000  7.621430000  0.000000000     0.000000000  0.131208973  0.000000000
     0.000000000  0.000000000  7.621200000     0.000000000  0.000000000  0.131212932

  length of vectors
     3.766980000  7.621430000  7.621200000     0.265464643  0.131208973  0.131212932


 
 k-points in units of 2pi/SCALE and weight: KPOINTS created by Atomic Simulation Env
   0.00000000  0.00000000  0.00000000       0.050
   0.05309293  0.00000000  0.00000000       0.100
   0.10618586  0.00000000  0.00000000       0.100
   0.00000000  0.06560449  0.00000000       0.050
   0.05309293  0.06560449  0.00000000       0.100
   0.10618586  0.06560449  0.00000000       0.100
   0.00000000  0.00000000  0.06560647       0.050
   0.05309293  0.00000000  0.06560647       0.100
   0.10618586  0.00000000  0.06560647       0.100
   0.00000000  0.06560449  0.06560647       0.050
   0.05309293  0.06560449  0.06560647       0.100
   0.10618586  0.06560449  0.06560647       0.100
 
 k-points in reciprocal lattice and weights: KPOINTS created by Atomic Simulation Env
   0.00000000  0.00000000  0.00000000       0.050
   0.20000000  0.00000000  0.00000000       0.100
   0.40000000  0.00000000  0.00000000       0.100
   0.00000000  0.50000000  0.00000000       0.050
   0.20000000  0.50000000  0.00000000       0.100
   0.40000000  0.50000000  0.00000000       0.100
   0.00000000  0.00000000  0.50000000       0.050
   0.20000000  0.00000000  0.50000000       0.100
   0.40000000  0.00000000  0.50000000       0.100
   0.00000000  0.50000000  0.50000000       0.050
   0.20000000  0.50000000  0.50000000       0.100
   0.40000000  0.50000000  0.50000000       0.100
 
 position of ions in fractional coordinates (direct lattice) 
   0.00015000  0.25004000  0.25000000
   0.99985000  0.74996000  0.75000000
   0.99985000  0.75004000  0.25000000
   0.00015000  0.24996000  0.75000000
   0.50000000  0.00008000  0.25000000
   0.50000000  0.99992000  0.75000000
   0.50000000  0.50008000  0.25000000
   0.50000000  0.49992000  0.75000000
   0.00000000  0.00000000  0.00000000
   0.00000000  0.00000000  0.50000000
   0.00000000  0.50000000  0.50000000
   0.00000000  0.50000000  0.00000000
   0.00000000  0.00004000  0.25000000
   0.00000000  0.99996000  0.75000000
   0.00000000  0.50004000  0.25000000
   0.00000000  0.49996000  0.75000000
 
 position of ions in cartesian coordinates  (Angst):
   0.00056505  1.90566236  1.90530000
   3.76641495  5.71576764  5.71590000
   3.76641495  5.71637736  1.90530000
   0.00056505  1.90505264  5.71590000
   1.88349000  0.00060971  1.90530000
   1.88349000  7.62082029  5.71590000
   1.88349000  3.81132471  1.90530000
   1.88349000  3.81010529  5.71590000
   0.00000000  0.00000000  0.00000000
   0.00000000  0.00000000  3.81060000
   0.00000000  3.81071500  3.81060000
   0.00000000  3.81071500  0.00000000
   0.00000000  0.00030486  1.90530000
   0.00000000  7.62112514  5.71590000
   0.00000000  3.81101986  1.90530000
   0.00000000  3.81041014  5.71590000
 


--------------------------------------------------------------------------------------------------------


 k-point  1 :   0.0000 0.0000 0.0000  plane waves:    7283
 k-point  2 :   0.2000 0.0000 0.0000  plane waves:    7307
 k-point  3 :   0.4000 0.0000 0.0000  plane waves:    7295
 k-point  4 :   0.0000 0.5000 0.0000  plane waves:    7334
 k-point  5 :   0.2000 0.5000 0.0000  plane waves:    7328
 k-point  6 :   0.4000 0.5000 0.0000  plane waves:    7264
 k-point  7 :   0.0000 0.0000 0.5000  plane waves:    7334
 k-point  8 :   0.2000 0.0000 0.5000  plane waves:    7328
 k-point  9 :   0.4000 0.0000 0.5000  plane waves:    7264
 k-point 10 :   0.0000 0.5000 0.5000  plane waves:    7308
 k-point 11 :   0.2000 0.5000 0.5000  plane waves:    7320
 k-point 12 :   0.4000 0.5000 0.5000  plane waves:    7280

 maximum and minimum number of plane-waves per node :       678      649

 maximum number of plane-waves:      7334
 maximum index in each direction: 
   IXMAX=    7   IYMAX=   15   IZMAX=   15
   IXMIN=   -7   IYMIN=  -15   IZMIN=  -15


 real space projection operators:
  total allocation   :       6803.44 KBytes
  max/ min on nodes  :        787.88        274.12


 parallel 3D FFT for wavefunctions:
    minimum data exchange during FFTs selected (reduces bandwidth)
 parallel 3D FFT for charge:
    minimum data exchange during FFTs selected (reduces bandwidth)


 total amount of memory used by VASP MPI-rank0    39490. kBytes
=======================================================================

   base      :      30000. kBytes
   nonlr-proj:       2911. kBytes
   fftplans  :        939. kBytes
   grid      :       2316. kBytes
   one-center:         62. kBytes
   wavefun   :       3262. kBytes
 
     INWAV:  cpu time    0.0002: real time    0.0002
 Broyden mixing: mesh for mixing (old mesh)
   NGX = 15   NGY = 31   NGZ = 31
  (NGX  = 60   NGY  =128   NGZ  =128)
  gives a total of  14415 points

 initial charge density was supplied:
 charge density of overlapping atoms calculated
 number of electron     108.0000000 magnetization      16.0000000
 keeping initial charge density in first step


--------------------------------------------------------------------------------------------------------


 Maximum index for non-local projection operator          767
 Maximum index for augmentation-charges         1457 (set IRDMAX)


--------------------------------------------------------------------------------------------------------


 First call to EWALD:  gamma=   0.294
 Maximum number of real-space cells 4x 2x 2
 Maximum number of reciprocal cells 2x 3x 3

    FEWALD:  cpu time    0.0065: real time    0.0072


--------------------------------------- Iteration      1(   1)  ---------------------------------------


    POTLOK:  cpu time    0.0935: real time    0.3286
    SETDIJ:  cpu time    2.6760: real time    2.6817
     EDDAV:  cpu time    0.9165: real time    0.9962
       DOS:  cpu time    0.0074: real time    0.0114
    --------------------------------------------
      LOOP:  cpu time    3.6934: real time    4.0180

 eigenvalue-minimisations  :  3456
 total energy-change (2. order) : 0.1190568E+04  (-0.5779283E+04)
 number of electron     108.0000000 magnetization      16.0000000
 augmentation part      108.0000000 magnetization      16.0000000

 Free energy of the ion-electron system (eV)
  ---------------------------------------------------
  alpha Z        PSCENC =       387.31279623
  Ewald energy   TEWEN  =     -5258.37574099
  -Hartree energ DENC   =     -2400.57640647
  -exchange      EXHF   =         0.00000000
  -V(xc)+E(xc)   XCENC  =       264.59198812
  PAW double counting   =      6362.12184073    -6222.39335305
  entropy T*S    EENTRO =        -0.00600471
  eigenvalues    EBANDS =       628.81939574
  atomic energy  EATOM  =      7429.07371459
  Solvation  Ediel_sol  =         0.00000000
  ---------------------------------------------------
  free energy    TOTEN  =      1190.56823020 eV

  energy without entropy =     1190.57423490  energy(sigma->0) =     1190.57123255


--------------------------------------------------------------------------------------------------------




--------------------------------------- Iteration      1(   2)  ---------------------------------------


     EDDAV:  cpu time    0.8903: real time    1.1879
       DOS:  cpu time    0.0043: real time    0.0043
    --------------------------------------------
      LOOP:  cpu time    0.8946: real time    1.1922

 eigenvalue-minimisations  :  3492
 total energy-change (2. order) :-0.1159939E+04  (-0.1099950E+04)
 number of electron     108.0000000 magnetization      16.0000000
 augmentation part      108.0000000 magnetization      16.0000000

 Free energy of the ion-electron system (eV)
  ---------------------------------------------------
  alpha Z        PSCENC =       387.31279623
  Ewald energy   TEWEN  =     -5258.37574099
  -Hartree energ DENC   =     -2400.57640647
  -exchange      EXHF   =         0.00000000
  -V(xc)+E(xc)   XCENC  =       264.59198812
  PAW double counting   =      6362.12184073    -6222.39335305
  entropy T*S    EENTRO =        -0.00905984
  eigenvalues    EBANDS =      -531.11610831
  atomic energy  EATOM  =      7429.07371459
  Solvation  Ediel_sol  =         0.00000000
  ---------------------------------------------------
  free energy    TOTEN  =        30.62967102 eV

  energy without entropy =       30.63873086  energy(sigma->0) =       30.63420094


--------------------------------------------------------------------------------------------------------




--------------------------------------- Iteration      1(   3)  ---------------------------------------


     EDDAV:  cpu time    1.1447: real time    1.4354
       DOS:  cpu time    0.0043: real time    0.0043
    --------------------------------------------
      LOOP:  cpu time    1.1491: real time    1.4397

 eigenvalue-minimisations  :  4716
 total energy-change (2. order) :-0.1603179E+03  (-0.1521118E+03)
 number of electron     108.0000000 magnetization      16.0000000
 augmentation part      108.0000000 magnetization      16.0000000

 Free energy of the ion-electron system (eV)
  ---------------------------------------------------
  alpha Z        PSCENC =       387.31279623
  Ewald energy   TEWEN  =     -5258.37574099
  -Hartree energ DENC   =     -2400.57640647
  -exchange      EXHF   =         0.00000000
  -V(xc)+E(xc)   XCENC  =       264.59198812
  PAW double counting   =      6362.12184073    -6222.39335305
  entropy T*S    EENTRO =        -0.01446778
  eigenvalues    EBANDS =      -691.42859117
  atomic energy  EATOM  =      7429.07371459
  Solvation  Ediel_sol  =         0.00000000
  ---------------------------------------------------
  free energy    TOTEN  =      -129.68821979 eV

  energy without entropy =     -129.67375201  energy(sigma->0) =     -129.68098590


--------------------------------------------------------------------------------------------------------




--------------------------------------- Iteration      1(   4)  ---------------------------------------


     EDDAV:  cpu time    0.9673: real time    1.0800
       DOS:  cpu time    0.0037: real time    0.0037
    --------------------------------------------
      LOOP:  cpu time    0.9711: real time    1.0837

 eigenvalue-minimisations  :  3864
 total energy-change (2. order) :-0.5666330E+01  (-0.5633020E+01)
 number of electron     108.0000000 magnetization      16.0000000
 augmentation part      108.0000000 magnetization      16.0000000

 Free energy of the ion-electron system (eV)
  ---------------------------------------------------
  alpha Z        PSCENC =       387.31279623
  Ewald energy   TEWEN  =     -5258.37574099
  -Hartree energ DENC   =     -2400.57640647
  -exchange      EXHF   =         0.00000000
  -V(xc)+E(xc)   XCENC  =       264.59198812
  PAW double counting   =      6362.12184073    -6222.39335305
  entropy T*S    EENTRO =        -0.01678183
  eigenvalues    EBANDS =      -697.09260686
  atomic energy  EATOM  =      7429.07371459
  Solvation  Ediel_sol  =         0.00000000
  ---------------------------------------------------
  free energy    TOTEN  =      -135.35454952 eV

  energy without entropy =     -135.33776770  energy(sigma->0) =     -135.34615861


--------------------------------------------------------------------------------------------------------




--------------------------------------- Iteration      1(   5)  ---------------------------------------


     EDDAV:  cpu time    1.0330: real time    1.1752
       DOS:  cpu time    0.0048: real time    0.0048
    CHARGE:  cpu time    0.1774: real time    0.1856
    MIXING:  cpu time    0.0119: real time    0.0151
    --------------------------------------------
      LOOP:  cpu time    1.2271: real time    1.3806

 eigenvalue-minimisations  :  4248
 total energy-change (2. order) :-0.1509845E+00  (-0.1509036E+00)
 number of electron     108.0000023 magnetization      14.7256398
 augmentation part       15.9582910 magnetization      12.8990326

 Broyden mixing:
  rms(total) = 0.10291E+02    rms(broyden)= 0.10291E+02
  rms(prec ) = 0.11391E+02
  weight for this iteration     100.00

 Free energy of the ion-electron system (eV)
  ---------------------------------------------------
  alpha Z        PSCENC =       387.31279623
  Ewald energy   TEWEN  =     -5258.37574099
  -Hartree energ DENC   =     -2400.57640647
  -exchange      EXHF   =         0.00000000
  -V(xc)+E(xc)   XCENC  =       264.59198812
  PAW double counting   =      6362.12184073    -6222.39335305
  entropy T*S    EENTRO =        -0.01701489
  eigenvalues    EBANDS =      -697.24335832
  atomic energy  EATOM  =      7429.07371459
  Solvation  Ediel_sol  =         0.00000000
  ---------------------------------------------------
  free energy    TOTEN  =      -135.50553405 eV

  energy without entropy =     -135.48851916  energy(sigma->0) =     -135.49702660


--------------------------------------------------------------------------------------------------------




--------------------------------------- Iteration      1(   6)  ---------------------------------------


    POTLOK:  cpu time    0.0763: real time    0.3625
    SETDIJ:  cpu time    2.6546: real time    2.6547
    EDDIAG:  cpu time    0.2495: real time    0.2581
  RMM-DIIS:  cpu time    0.3760: real time    0.3828
    ORTHCH:  cpu time    0.0153: real time    0.0153
       DOS:  cpu time    0.0052: real time    0.0052
    CHARGE:  cpu time    0.1752: real time    0.1752
    MIXING:  cpu time    0.0106: real time    0.0177
    --------------------------------------------
      LOOP:  cpu time    3.5628: real time    3.8715

 eigenvalue-minimisations  :  3510
 total energy-change (2. order) : 0.3653335E+02  (-0.4745614E+01)
 number of electron     108.0000020 magnetization      12.9852759
 augmentation part       16.8559845 magnetization      10.4066706

 Broyden mixing:
  rms(total) = 0.55675E+01    rms(broyden)= 0.55674E+01
  rms(prec ) = 0.57328E+01
  weight for this iteration     100.00

 eigenvalues of (default mixing * dielectric matrix)
  average eigenvalue GAMMA=   1.8129
  1.8129

 Free energy of the ion-electron system (eV)
  ---------------------------------------------------
  alpha Z        PSCENC =       387.31279623
  Ewald energy   TEWEN  =     -5258.37574099
  -Hartree energ DENC   =     -2433.88335542
  -exchange      EXHF   =         0.00000000
  -V(xc)+E(xc)   XCENC  =       271.21242423
  PAW double counting   =      7096.78976925    -6963.66389965
  entropy T*S    EENTRO =        -0.02514119
  eigenvalues    EBANDS =      -627.41275198
  atomic energy  EATOM  =      7429.07371459
  Solvation  Ediel_sol  =         0.00000000
  ---------------------------------------------------
  free energy    TOTEN  =       -98.97218493 eV

  energy without entropy =      -98.94704375  energy(sigma->0) =      -98.95961434


--------------------------------------------------------------------------------------------------------




--------------------------------------- Iteration      1(   7)  ---------------------------------------


    POTLOK:  cpu time    0.0776: real time    0.1875
    SETDIJ:  cpu time    2.6553: real time    2.6554
    EDDIAG:  cpu time    0.2468: real time    0.2468
  RMM-DIIS:  cpu time    0.3605: real time    0.3605
    ORTHCH:  cpu time    0.0155: real time    0.0155
       DOS:  cpu time    0.0051: real time    0.0051
    CHARGE:  cpu time    0.1749: real time    0.1749
    MIXING:  cpu time    0.0121: real time    0.0149
    --------------------------------------------
      LOOP:  cpu time    3.5478: real time    3.6606

 eigenvalue-minimisations  :  3464
 total energy-change (2. order) :-0.2999976E+00  (-0.1525589E+01)
 number of electron     108.0000018 magnetization      13.5188421
 augmentation part       17.8949826 magnetization       9.4831914

 Broyden mixing:
  rms(total) = 0.47081E+01    rms(broyden)= 0.47080E+01
  rms(prec ) = 0.48461E+01
  weight for this iteration     100.00

 eigenvalues of (default mixing * dielectric matrix)
  average eigenvalue GAMMA=   1.1506
  1.6302  0.6710

 Free energy of the ion-electron system (eV)
  ---------------------------------------------------
  alpha Z        PSCENC =       387.31279623
  Ewald energy   TEWEN  =     -5258.37574099
  -Hartree energ DENC   =     -2445.00199963
  -exchange      EXHF   =         0.00000000
  -V(xc)+E(xc)   XCENC  =       273.71999151
  PAW double counting   =      8019.92898240    -7892.40718226
  entropy T*S    EENTRO =        -0.03679524
  eigenvalues    EBANDS =      -613.48594919
  atomic energy  EATOM  =      7429.07371459
  Solvation  Ediel_sol  =         0.00000000
  ---------------------------------------------------
  free energy    TOTEN  =       -99.27218258 eV

  energy without entropy =      -99.23538734  energy(sigma->0) =      -99.25378496


--------------------------------------------------------------------------------------------------------




--------------------------------------- Iteration      1(   8)  ---------------------------------------


    POTLOK:  cpu time    0.0768: real time    0.2145
    SETDIJ:  cpu time    2.6542: real time    2.6543
    EDDIAG:  cpu time    0.2463: real time    0.2463
  RMM-DIIS:  cpu time    0.3706: real time    0.3707
    ORTHCH:  cpu time    0.0153: real time    0.0153
       DOS:  cpu time    0.0049: real time    0.0049
    CHARGE:  cpu time    0.1739: real time    0.1739
    MIXING:  cpu time    0.0119: real time    0.0127
    --------------------------------------------
      LOOP:  cpu time    3.5539: real time    3.6925

 eigenvalue-minimisations  :  3538
 total energy-change (2. order) :-0.2378600E+01  (-0.2699590E+00)
 number of electron     108.0000019 magnetization      10.7413864
 augmentation part       18.1404907 magnetization       6.1756050

 Broyden mixing:
  rms(total) = 0.63725E+01    rms(broyden)= 0.63725E+01
  rms(prec ) = 0.66460E+01
  weight for this iteration     100.00

 eigenvalues of (default mixing * dielectric matrix)
  average eigenvalue GAMMA=   1.5308
  2.7837  0.9043  0.9043

 Free energy of the ion-electron system (eV)
  ---------------------------------------------------
  alpha Z        PSCENC =       387.31279623
  Ewald energy   TEWEN  =     -5258.37574099
  -Hartree energ DENC   =     -2447.64215303
  -exchange      EXHF   =         0.00000000
  -V(xc)+E(xc)   XCENC  =       274.38817726
  PAW double counting   =      7703.29253494    -7574.62048799
  entropy T*S    EENTRO =        -0.02937938
  eigenvalues    EBANDS =      -615.05024416
  atomic energy  EATOM  =      7429.07371459
  Solvation  Ediel_sol  =         0.00000000
  ---------------------------------------------------
  free energy    TOTEN  =      -101.65078254 eV

  energy without entropy =     -101.62140316  energy(sigma->0) =     -101.63609285


--------------------------------------------------------------------------------------------------------




--------------------------------------- Iteration      1(   9)  ---------------------------------------


    POTLOK:  cpu time    1.3044: real time    7.0226
    SETDIJ:  cpu time    2.6532: real time    2.6532
    EDDIAG:  cpu time    0.2460: real time    0.2460
  RMM-DIIS:  cpu time    0.3593: real time    0.3594
    ORTHCH:  cpu time    0.0152: real time    0.0152
       DOS:  cpu time    0.0052: real time    0.0052
    CHARGE:  cpu time    0.1734: real time    0.1734
    MIXING:  cpu time    0.0117: real time    0.0120
    --------------------------------------------
      LOOP:  cpu time    4.7685: real time   10.4870

 eigenvalue-minimisations  :  3466
 total energy-change (2. order) : 0.2553978E+01  (-0.3008887E+00)
 number of electron     108.0000017 magnetization       9.8166019
 augmentation part       17.3745417 magnetization       8.4261637

 Broyden mixing:
  rms(total) = 0.23512E+01    rms(broyden)= 0.23509E+01
  rms(prec ) = 0.24594E+01
  weight for this iteration     100.00

 eigenvalues of (default mixing * dielectric matrix)
  average eigenvalue GAMMA=   1.4705
  3.7985  1.0384  0.6381  0.4070

 Free energy of the ion-electron system (eV)
  ---------------------------------------------------
  alpha Z        PSCENC =       387.31279623
  Ewald energy   TEWEN  =     -5258.37574099
  -Hartree energ DENC   =     -2443.74123367
  -exchange      EXHF   =         0.00000000
  -V(xc)+E(xc)   XCENC  =       272.86936479
  PAW double counting   =      9203.30360777    -9080.45912396
  entropy T*S    EENTRO =        -0.02600827
  eigenvalues    EBANDS =      -609.05418115
  atomic energy  EATOM  =      7429.07371459
  Solvation  Ediel_sol  =         0.00000000
  ---------------------------------------------------
  free energy    TOTEN  =       -99.09680466 eV

  energy without entropy =      -99.07079639  energy(sigma->0) =      -99.08380052


--------------------------------------------------------------------------------------------------------




--------------------------------------- Iteration      1(  10)  ---------------------------------------


    POTLOK:  cpu time    0.0786: real time    0.1580
    SETDIJ:  cpu time    2.6544: real time    2.6545
    EDDIAG:  cpu time    0.2463: real time    0.2463
  RMM-DIIS:  cpu time    0.3609: real time    0.3609
    ORTHCH:  cpu time    0.0153: real time    0.0153
       DOS:  cpu time    0.0045: real time    0.0044
    CHARGE:  cpu time    0.1757: real time    0.1758
    MIXING:  cpu time    0.0092: real time    0.0092
    --------------------------------------------
      LOOP:  cpu time    3.5447: real time    3.6243

 eigenvalue-minimisations  :  3467
 total energy-change (2. order) : 0.1769390E-01  (-0.4585131E-01)
 number of electron     108.0000018 magnetization       7.8706971
 augmentation part       17.2347067 magnetization       6.6414971

 Broyden mixing:
  rms(total) = 0.17131E+01    rms(broyden)= 0.17131E+01
  rms(prec ) = 0.17777E+01
  weight for this iteration     100.00

 eigenvalues of (default mixing * dielectric matrix)
  average eigenvalue GAMMA=   1.7074
  5.3012  1.1342  0.7051  0.7051  0.6917

 Free energy of the ion-electron system (eV)
  ---------------------------------------------------
  alpha Z        PSCENC =       387.31279623
  Ewald energy   TEWEN  =     -5258.37574099
  -Hartree energ DENC   =     -2441.02904597
  -exchange      EXHF   =         0.00000000
  -V(xc)+E(xc)   XCENC  =       272.37449725
  PAW double counting   =      9632.10613258    -9510.90084172
  entropy T*S    EENTRO =        -0.02693308
  eigenvalues    EBANDS =      -609.61368964
  atomic energy  EATOM  =      7429.07371459
  Solvation  Ediel_sol  =         0.00000000
  ---------------------------------------------------
  free energy    TOTEN  =       -99.07911076 eV

  energy without entropy =      -99.05217768  energy(sigma->0) =      -99.06564422


--------------------------------------------------------------------------------------------------------




--------------------------------------- Iteration      1(  11)  ---------------------------------------


    POTLOK:  cpu time    0.0772: real time    0.4015
    SETDIJ:  cpu time    2.6533: real time    2.6534
    EDDIAG:  cpu time    0.2477: real time    0.2477
  RMM-DIIS:  cpu time    0.3676: real time    0.3676
    ORTHCH:  cpu time    0.0153: real time    0.0153
       DOS:  cpu time    0.0055: real time    0.0055
    CHARGE:  cpu time    0.1753: real time    0.1753
    MIXING:  cpu time    0.0092: real time    0.0092
    --------------------------------------------
      LOOP:  cpu time    3.5511: real time    3.8755

 eigenvalue-minimisations  :  3499
 total energy-change (2. order) :-0.5833462E+00  (-0.2680158E-01)
 number of electron     108.0000018 magnetization       7.1905933
 augmentation part       17.1860941 magnetization       6.4775943

 Broyden mixing:
  rms(total) = 0.13188E+01    rms(broyden)= 0.13188E+01
  rms(prec ) = 0.14180E+01
  weight for this iteration     100.00

 eigenvalues of (default mixing * dielectric matrix)
  average eigenvalue GAMMA=   1.6415
  5.3090  1.0832  1.0832  1.1407  0.6166  0.6166

 Free energy of the ion-electron system (eV)
  ---------------------------------------------------
  alpha Z        PSCENC =       387.31279623
  Ewald energy   TEWEN  =     -5258.37574099
  -Hartree energ DENC   =     -2437.48224457
  -exchange      EXHF   =         0.00000000
  -V(xc)+E(xc)   XCENC  =       271.91639864
  PAW double counting   =     10368.13455301   -10249.83592788
  entropy T*S    EENTRO =        -0.02105656
  eigenvalues    EBANDS =      -610.38494939
  atomic energy  EATOM  =      7429.07371459
  Solvation  Ediel_sol  =         0.00000000
  ---------------------------------------------------
  free energy    TOTEN  =       -99.66245692 eV

  energy without entropy =      -99.64140036  energy(sigma->0) =      -99.65192864


--------------------------------------------------------------------------------------------------------




--------------------------------------- Iteration      1(  12)  ---------------------------------------


    POTLOK:  cpu time    0.0779: real time    0.2799
    SETDIJ:  cpu time    2.6520: real time    2.6521
    EDDIAG:  cpu time    0.2467: real time    0.2467
  RMM-DIIS:  cpu time    0.3590: real time    0.3590
    ORTHCH:  cpu time    0.0154: real time    0.0154
       DOS:  cpu time    0.0045: real time    0.0045
    CHARGE:  cpu time    0.1737: real time    0.1737
    MIXING:  cpu time    0.0093: real time    0.0093
    --------------------------------------------
      LOOP:  cpu time    3.5384: real time    3.7405

 eigenvalue-minimisations  :  3473
 total energy-change (2. order) :-0.1095978E+00  (-0.2309201E-02)
 number of electron     108.0000018 magnetization       7.3313901
 augmentation part       17.1994624 magnetization       6.8253296

 Broyden mixing:
  rms(total) = 0.12676E+01    rms(broyden)= 0.12676E+01
  rms(prec ) = 0.13479E+01
  weight for this iteration     100.00

 eigenvalues of (default mixing * dielectric matrix)
  average eigenvalue GAMMA=   1.4226
  5.3387  1.0651  1.0651  1.1495  0.6223  0.6223  0.0954

 Free energy of the ion-electron system (eV)
  ---------------------------------------------------
  alpha Z        PSCENC =       387.31279623
  Ewald energy   TEWEN  =     -5258.37574099
  -Hartree energ DENC   =     -2436.30436346
  -exchange      EXHF   =         0.00000000
  -V(xc)+E(xc)   XCENC  =       271.78250669
  PAW double counting   =     10325.86179182   -10207.51306575
  entropy T*S    EENTRO =        -0.01375066
  eigenvalues    EBANDS =      -611.59594317
  atomic energy  EATOM  =      7429.07371459
  Solvation  Ediel_sol  =         0.00000000
  ---------------------------------------------------
  free energy    TOTEN  =       -99.77205471 eV

  energy without entropy =      -99.75830404  energy(sigma->0) =      -99.76517937


--------------------------------------------------------------------------------------------------------




--------------------------------------- Iteration      1(  13)  ---------------------------------------


    POTLOK:  cpu time    0.1059: real time    0.2308
    SETDIJ:  cpu time    2.6528: real time    2.6529
    EDDIAG:  cpu time    0.2466: real time    0.2466
  RMM-DIIS:  cpu time    0.3756: real time    0.3757
    ORTHCH:  cpu time    0.0155: real time    0.0155
       DOS:  cpu time    0.0051: real time    0.0050
    CHARGE:  cpu time    0.1733: real time    0.1733
    MIXING:  cpu time    0.0093: real time    0.0093
    --------------------------------------------
      LOOP:  cpu time    3.5841: real time    3.7091

 eigenvalue-minimisations  :  3541
 total energy-change (2. order) :-0.2523456E-02  (-0.6841573E-03)
 number of electron     108.0000018 magnetization       7.3900193
 augmentation part       17.1856549 magnetization       6.8419273

 Broyden mixing:
  rms(total) = 0.13101E+01    rms(broyden)= 0.13101E+01
  rms(prec ) = 0.13991E+01
  weight for this iteration     100.00

 eigenvalues of (default mixing * dielectric matrix)
  average eigenvalue GAMMA=   2.1325
  5.4097  3.5955  3.5955  1.1280  0.9812  0.9812  0.6843  0.6843

 Free energy of the ion-electron system (eV)
  ---------------------------------------------------
  alpha Z        PSCENC =       387.31279623
  Ewald energy   TEWEN  =     -5258.37574099
  -Hartree energ DENC   =     -2436.36628618
  -exchange      EXHF   =         0.00000000
  -V(xc)+E(xc)   XCENC  =       271.78094519
  PAW double counting   =     10390.67419294   -10272.52611875
  entropy T*S    EENTRO =        -0.01550063
  eigenvalues    EBANDS =      -611.33258057
  atomic energy  EATOM  =      7429.07371459
  Solvation  Ediel_sol  =         0.00000000
  ---------------------------------------------------
  free energy    TOTEN  =       -99.77457816 eV

  energy without entropy =      -99.75907753  energy(sigma->0) =      -99.76682785


--------------------------------------------------------------------------------------------------------




--------------------------------------- Iteration      1(  14)  ---------------------------------------


    POTLOK:  cpu time    0.0772: real time    0.2717
    SETDIJ:  cpu time    2.6525: real time    2.6526
    EDDIAG:  cpu time    0.2462: real time    0.2462
  RMM-DIIS:  cpu time    0.3586: real time    0.3586
    ORTHCH:  cpu time    0.0152: real time    0.0152
       DOS:  cpu time    0.0049: real time    0.0049
    CHARGE:  cpu time    0.1733: real time    0.1734
    MIXING:  cpu time    0.0098: real time    0.0098
    --------------------------------------------
      LOOP:  cpu time    3.5376: real time    3.7322

 eigenvalue-minimisations  :  3460
 total energy-change (2. order) : 0.7031794E-01  (-0.2323734E-02)
 number of electron     108.0000018 magnetization       5.6715000
 augmentation part       17.1992010 magnetization       5.0893982

 Broyden mixing:
  rms(total) = 0.12369E+01    rms(broyden)= 0.12369E+01
  rms(prec ) = 0.13149E+01
  weight for this iteration     100.00

 eigenvalues of (default mixing * dielectric matrix)
  average eigenvalue GAMMA=   2.6468
  6.6961  6.6961  5.2768  1.1387  1.1387  0.6785  0.6785  0.8798  0.6382

 Free energy of the ion-electron system (eV)
  ---------------------------------------------------
  alpha Z        PSCENC =       387.31279623
  Ewald energy   TEWEN  =     -5258.37574099
  -Hartree energ DENC   =     -2435.21500084
  -exchange      EXHF   =         0.00000000
  -V(xc)+E(xc)   XCENC  =       271.73773605
  PAW double counting   =     10397.31945240   -10279.21209997
  entropy T*S    EENTRO =        -0.01735803
  eigenvalues    EBANDS =      -612.32775965
  atomic energy  EATOM  =      7429.07371459
  Solvation  Ediel_sol  =         0.00000000
  ---------------------------------------------------
  free energy    TOTEN  =       -99.70426022 eV

  energy without entropy =      -99.68690219  energy(sigma->0) =      -99.69558121


--------------------------------------------------------------------------------------------------------




--------------------------------------- Iteration      1(  15)  ---------------------------------------


    POTLOK:  cpu time    0.0769: real time    0.2456
    SETDIJ:  cpu time    2.6516: real time    2.6517
    EDDIAG:  cpu time    0.2456: real time    0.2457
  RMM-DIIS:  cpu time    0.3592: real time    0.3592
    ORTHCH:  cpu time    0.0153: real time    0.0153
       DOS:  cpu time    0.0042: real time    0.0041
    CHARGE:  cpu time    0.1731: real time    0.1731
    MIXING:  cpu time    0.0096: real time    0.0096
    --------------------------------------------
      LOOP:  cpu time    3.5355: real time    3.7043

 eigenvalue-minimisations  :  3463
 total energy-change (2. order) :-0.2242686E+00  (-0.1680307E-01)
 number of electron     108.0000018 magnetization       1.0930859
 augmentation part       17.2870463 magnetization       0.5661977

 Broyden mixing:
  rms(total) = 0.11427E+01    rms(broyden)= 0.11427E+01
  rms(prec ) = 0.11697E+01
  weight for this iteration     100.00

 eigenvalues of (default mixing * dielectric matrix)
  average eigenvalue GAMMA=   2.5927
  7.0356  7.0356  5.1236  0.6791  0.6791  1.1581  1.1581  1.1070  1.1070  0.8442

 Free energy of the ion-electron system (eV)
  ---------------------------------------------------
  alpha Z        PSCENC =       387.31279623
  Ewald energy   TEWEN  =     -5258.37574099
  -Hartree energ DENC   =     -2431.84401661
  -exchange      EXHF   =         0.00000000
  -V(xc)+E(xc)   XCENC  =       271.48697888
  PAW double counting   =     10221.22234826   -10102.79464657
  entropy T*S    EENTRO =        -0.01524256
  eigenvalues    EBANDS =      -615.99472002
  atomic energy  EATOM  =      7429.07371459
  Solvation  Ediel_sol  =         0.00000000
  ---------------------------------------------------
  free energy    TOTEN  =       -99.92852880 eV

  energy without entropy =      -99.91328624  energy(sigma->0) =      -99.92090752


--------------------------------------------------------------------------------------------------------




--------------------------------------- Iteration      1(  16)  ---------------------------------------


    POTLOK:  cpu time    0.0790: real time    0.1765
    SETDIJ:  cpu time    2.6524: real time    2.6525
    EDDIAG:  cpu time    0.2474: real time    0.2474
  RMM-DIIS:  cpu time    0.3619: real time    0.3620
    ORTHCH:  cpu time    0.0150: real time    0.0150
       DOS:  cpu time    0.0050: real time    0.0050
    CHARGE:  cpu time    0.1740: real time    0.1740
    MIXING:  cpu time    0.0145: real time    0.0202
    --------------------------------------------
      LOOP:  cpu time    3.5491: real time    3.6524

 eigenvalue-minimisations  :  3469
 total energy-change (2. order) :-0.4442107E+00  (-0.3739265E-01)
 number of electron     108.0000019 magnetization       2.4354721
 augmentation part       17.3457811 magnetization       2.0580477

 Broyden mixing:
  rms(total) = 0.10699E+01    rms(broyden)= 0.10699E+01
  rms(prec ) = 0.10811E+01
  weight for this iteration     100.00

 eigenvalues of (default mixing * dielectric matrix)
  average eigenvalue GAMMA=   2.3505
  7.0768  5.0782  3.5533  3.5533  1.2863  1.2863  1.1128  0.6786  0.6786  0.8604
  0.6906

 Free energy of the ion-electron system (eV)
  ---------------------------------------------------
  alpha Z        PSCENC =       387.31279623
  Ewald energy   TEWEN  =     -5258.37574099
  -Hartree energ DENC   =     -2429.09181541
  -exchange      EXHF   =         0.00000000
  -V(xc)+E(xc)   XCENC  =       271.14185517
  PAW double counting   =      9941.58638293    -9822.70424622
  entropy T*S    EENTRO =        -0.02522651
  eigenvalues    EBANDS =      -619.29045930
  atomic energy  EATOM  =      7429.07371459
  Solvation  Ediel_sol  =         0.00000000
  ---------------------------------------------------
  free energy    TOTEN  =      -100.37273951 eV

  energy without entropy =     -100.34751300  energy(sigma->0) =     -100.36012625


--------------------------------------------------------------------------------------------------------




--------------------------------------- Iteration      1(  17)  ---------------------------------------


    POTLOK:  cpu time    0.0776: real time    0.2832
    SETDIJ:  cpu time    2.6525: real time    2.6526
    EDDIAG:  cpu time    0.2466: real time    0.2466
  RMM-DIIS:  cpu time    0.3611: real time    0.3611
    ORTHCH:  cpu time    0.0155: real time    0.0155
       DOS:  cpu time    0.0044: real time    0.0044
    CHARGE:  cpu time    0.1727: real time    0.1727
    MIXING:  cpu time    0.0129: real time    0.0135
    --------------------------------------------
      LOOP:  cpu time    3.5433: real time    3.7496

 eigenvalue-minimisations  :  3456
 total energy-change (2. order) : 0.5943162E-01  (-0.1134224E-01)
 number of electron     108.0000018 magnetization       1.1961850
 augmentation part       17.2232350 magnetization       0.6967277

 Broyden mixing:
  rms(total) = 0.55164E+00    rms(broyden)= 0.55164E+00
  rms(prec ) = 0.56897E+00
  weight for this iteration     100.00

 eigenvalues of (default mixing * dielectric matrix)
  average eigenvalue GAMMA=   2.4334
  9.6650  5.0652  3.5208  3.5208  1.3546  1.3546  0.9728  0.9728  0.6770  0.6770
  0.7103  0.7103

 Free energy of the ion-electron system (eV)
  ---------------------------------------------------
  alpha Z        PSCENC =       387.31279623
  Ewald energy   TEWEN  =     -5258.37574099
  -Hartree energ DENC   =     -2433.04382006
  -exchange      EXHF   =         0.00000000
  -V(xc)+E(xc)   XCENC  =       271.23416267
  PAW double counting   =     10153.26933692   -10034.84914259
  entropy T*S    EENTRO =        -0.01434042
  eigenvalues    EBANDS =      -614.92027423
  atomic energy  EATOM  =      7429.07371459
  Solvation  Ediel_sol  =         0.00000000
  ---------------------------------------------------
  free energy    TOTEN  =      -100.31330788 eV

  energy without entropy =     -100.29896746  energy(sigma->0) =     -100.30613767


--------------------------------------------------------------------------------------------------------




--------------------------------------- Iteration      1(  18)  ---------------------------------------


    POTLOK:  cpu time    0.0771: real time    0.1266
    SETDIJ:  cpu time    2.6518: real time    2.6519
    EDDIAG:  cpu time    0.2465: real time    0.2465
  RMM-DIIS:  cpu time    0.3673: real time    0.3673
    ORTHCH:  cpu time    0.0153: real time    0.0153
       DOS:  cpu time    0.0046: real time    0.0046
    CHARGE:  cpu time    0.1725: real time    0.1725
    MIXING:  cpu time    0.0127: real time    0.0139
    --------------------------------------------
      LOOP:  cpu time    3.5478: real time    3.5985

 eigenvalue-minimisations  :  3484
 total energy-change (2. order) :-0.7717803E-01  (-0.2672865E-02)
 number of electron     108.0000019 magnetization       0.7793734
 augmentation part       17.1955980 magnetization       0.3139523

 Broyden mixing:
  rms(total) = 0.49856E+00    rms(broyden)= 0.49856E+00
  rms(prec ) = 0.52911E+00
  weight for this iteration     100.00

 eigenvalues of (default mixing * dielectric matrix)
  average eigenvalue GAMMA=   2.5893
 10.5525  4.6139  4.6139  3.2615  3.2615  1.1791  1.1791  1.2299  0.6787  0.6787
  0.8235  0.8235  0.7654

 Free energy of the ion-electron system (eV)
  ---------------------------------------------------
  alpha Z        PSCENC =       387.31279623
  Ewald energy   TEWEN  =     -5258.37574099
  -Hartree energ DENC   =     -2432.13101469
  -exchange      EXHF   =         0.00000000
  -V(xc)+E(xc)   XCENC  =       271.09076684
  PAW double counting   =     10128.60850791   -10010.21580348
  entropy T*S    EENTRO =        -0.01338575
  eigenvalues    EBANDS =      -615.74032657
  atomic energy  EATOM  =      7429.07371459
  Solvation  Ediel_sol  =         0.00000000
  ---------------------------------------------------
  free energy    TOTEN  =      -100.39048591 eV

  energy without entropy =     -100.37710016  energy(sigma->0) =     -100.38379303


--------------------------------------------------------------------------------------------------------




--------------------------------------- Iteration      1(  19)  ---------------------------------------


    POTLOK:  cpu time    0.0780: real time    0.1276
    SETDIJ:  cpu time    2.6523: real time    2.6524
    EDDIAG:  cpu time    0.2461: real time    0.2461
  RMM-DIIS:  cpu time    0.3636: real time    0.3636
    ORTHCH:  cpu time    0.0151: real time    0.0151
       DOS:  cpu time    0.0046: real time    0.0046
    CHARGE:  cpu time    0.1721: real time    0.1721
    MIXING:  cpu time    0.0128: real time    0.0133
    --------------------------------------------
      LOOP:  cpu time    3.5445: real time    3.5946

 eigenvalue-minimisations  :  3466
 total energy-change (2. order) : 0.1165772E-01  (-0.1732376E-02)
 number of electron     108.0000019 magnetization       0.5664750
 augmentation part       17.2316132 magnetization       0.0847894

 Broyden mixing:
  rms(total) = 0.26773E+00    rms(broyden)= 0.26773E+00
  rms(prec ) = 0.28948E+00
  weight for this iteration     100.00

 eigenvalues of (default mixing * dielectric matrix)
  average eigenvalue GAMMA=   2.6069
 10.6173  5.9351  5.3847  3.2217  3.2217  0.6785  0.6785  1.1204  1.1204  1.0859
  1.0859  0.8597  0.7539  0.7328

 Free energy of the ion-electron system (eV)
  ---------------------------------------------------
  alpha Z        PSCENC =       387.31279623
  Ewald energy   TEWEN  =     -5258.37574099
  -Hartree energ DENC   =     -2431.62667015
  -exchange      EXHF   =         0.00000000
  -V(xc)+E(xc)   XCENC  =       271.13600341
  PAW double counting   =     10137.56235512   -10019.28264737
  entropy T*S    EENTRO =        -0.01492402
  eigenvalues    EBANDS =      -616.16371500
  atomic energy  EATOM  =      7429.07371459
  Solvation  Ediel_sol  =         0.00000000
  ---------------------------------------------------
  free energy    TOTEN  =      -100.37882818 eV

  energy without entropy =     -100.36390416  energy(sigma->0) =     -100.37136617


--------------------------------------------------------------------------------------------------------




--------------------------------------- Iteration      1(  20)  ---------------------------------------


    POTLOK:  cpu time    0.0772: real time    0.1856
    SETDIJ:  cpu time    2.6524: real time    2.6525
    EDDIAG:  cpu time    0.2460: real time    0.2460
  RMM-DIIS:  cpu time    0.3622: real time    0.3622
    ORTHCH:  cpu time    0.0155: real time    0.0155
       DOS:  cpu time    0.0069: real time    0.0069
    CHARGE:  cpu time    0.1724: real time    0.1724
    MIXING:  cpu time    0.0132: real time    0.0144
    --------------------------------------------
      LOOP:  cpu time    3.5458: real time    3.6555

 eigenvalue-minimisations  :  3487
 total energy-change (2. order) : 0.8841864E-02  (-0.3395570E-02)
 number of electron     108.0000019 magnetization       0.5749524
 augmentation part       17.2877522 magnetization       0.1036247

 Broyden mixing:
  rms(total) = 0.19626E+00    rms(broyden)= 0.19625E+00
  rms(prec ) = 0.20028E+00
  weight for this iteration     100.00

 eigenvalues of (default mixing * dielectric matrix)
  average eigenvalue GAMMA=   2.4307
 10.5932  5.5850  5.5850  3.2315  3.2315  1.1345  1.1345  0.6785  0.6785  1.0776
  1.0776  0.8816  0.7419  0.7419  0.0879

 Free energy of the ion-electron system (eV)
  ---------------------------------------------------
  alpha Z        PSCENC =       387.31279623
  Ewald energy   TEWEN  =     -5258.37574099
  -Hartree energ DENC   =     -2431.52861364
  -exchange      EXHF   =         0.00000000
  -V(xc)+E(xc)   XCENC  =       271.21640667
  PAW double counting   =     10083.92412970    -9965.51563140
  entropy T*S    EENTRO =        -0.02161254
  eigenvalues    EBANDS =      -616.45543493
  atomic energy  EATOM  =      7429.07371459
  Solvation  Ediel_sol  =         0.00000000
  ---------------------------------------------------
  free energy    TOTEN  =      -100.36998632 eV

  energy without entropy =     -100.34837378  energy(sigma->0) =     -100.35918005


--------------------------------------------------------------------------------------------------------




--------------------------------------- Iteration      1(  21)  ---------------------------------------


    POTLOK:  cpu time    0.0768: real time    0.2974
    SETDIJ:  cpu time    2.6520: real time    2.6521
    EDDIAG:  cpu time    0.2463: real time    0.2463
  RMM-DIIS:  cpu time    0.3745: real time    0.3745
    ORTHCH:  cpu time    0.0153: real time    0.0153
       DOS:  cpu time    0.0047: real time    0.0047
    CHARGE:  cpu time    0.1738: real time    0.1738
    MIXING:  cpu time    0.0138: real time    0.0156
    --------------------------------------------
      LOOP:  cpu time    3.5572: real time    3.7796

 eigenvalue-minimisations  :  3580
 total energy-change (2. order) :-0.8938745E-04  (-0.1713601E-03)
 number of electron     108.0000019 magnetization       0.5273916
 augmentation part       17.2861391 magnetization       0.0534189

 Broyden mixing:
  rms(total) = 0.19162E+00    rms(broyden)= 0.19162E+00
  rms(prec ) = 0.19568E+00
  weight for this iteration     100.00

 eigenvalues of (default mixing * dielectric matrix)
  average eigenvalue GAMMA=   2.3326
 10.9185  5.5902  5.5902  3.2456  3.2456  1.1347  1.1347  0.6785  0.6785  1.0807
  1.0807  0.8425  0.7711  0.7042  0.3315  0.2948

 Free energy of the ion-electron system (eV)
  ---------------------------------------------------
  alpha Z        PSCENC =       387.31279623
  Ewald energy   TEWEN  =     -5258.37574099
  -Hartree energ DENC   =     -2431.53671239
  -exchange      EXHF   =         0.00000000
  -V(xc)+E(xc)   XCENC  =       271.21558066
  PAW double counting   =     10085.05636034    -9966.65047941
  entropy T*S    EENTRO =        -0.02144836
  eigenvalues    EBANDS =      -616.44414637
  atomic energy  EATOM  =      7429.07371459
  Solvation  Ediel_sol  =         0.00000000
  ---------------------------------------------------
  free energy    TOTEN  =      -100.37007571 eV

  energy without entropy =     -100.34862735  energy(sigma->0) =     -100.35935153


--------------------------------------------------------------------------------------------------------




--------------------------------------- Iteration      1(  22)  ---------------------------------------


    POTLOK:  cpu time    0.0768: real time    0.2232
    SETDIJ:  cpu time    2.6537: real time    2.6538
    EDDIAG:  cpu time    0.2449: real time    0.2449
  RMM-DIIS:  cpu time    0.3574: real time    0.3574
    ORTHCH:  cpu time    0.0152: real time    0.0152
       DOS:  cpu time    0.0047: real time    0.0047
    CHARGE:  cpu time    0.1736: real time    0.1736
    MIXING:  cpu time    0.0137: real time    0.0148
    --------------------------------------------
      LOOP:  cpu time    3.5399: real time    3.6876

 eigenvalue-minimisations  :  3474
 total energy-change (2. order) : 0.1375150E-03  (-0.2752271E-04)
 number of electron     108.0000019 magnetization       0.5940857
 augmentation part       17.2845645 magnetization       0.1259269

 Broyden mixing:
  rms(total) = 0.18232E+00    rms(broyden)= 0.18232E+00
  rms(prec ) = 0.18554E+00
  weight for this iteration     100.00

 eigenvalues of (default mixing * dielectric matrix)
  average eigenvalue GAMMA=   2.3727
 11.4376  5.4695  5.4695  3.3688  3.3688  0.9123  1.1853  1.1853  1.1670  1.1670
  0.6785  0.6785  0.9876  0.9876  0.7945  0.7390  0.7390

 Free energy of the ion-electron system (eV)
  ---------------------------------------------------
  alpha Z        PSCENC =       387.31279623
  Ewald energy   TEWEN  =     -5258.37574099
  -Hartree energ DENC   =     -2431.38422628
  -exchange      EXHF   =         0.00000000
  -V(xc)+E(xc)   XCENC  =       271.20800086
  PAW double counting   =     10092.89944629    -9974.53262828
  entropy T*S    EENTRO =        -0.02139175
  eigenvalues    EBANDS =      -616.54990886
  atomic energy  EATOM  =      7429.07371459
  Solvation  Ediel_sol  =         0.00000000
  ---------------------------------------------------
  free energy    TOTEN  =      -100.36993819 eV

  energy without entropy =     -100.34854645  energy(sigma->0) =     -100.35924232


--------------------------------------------------------------------------------------------------------




--------------------------------------- Iteration      1(  23)  ---------------------------------------


    POTLOK:  cpu time    0.0987: real time    0.2490
    SETDIJ:  cpu time    2.6524: real time    2.6525
    EDDIAG:  cpu time    0.2438: real time    0.2438
  RMM-DIIS:  cpu time    0.3593: real time    0.3594
    ORTHCH:  cpu time    0.0152: real time    0.0152
       DOS:  cpu time    0.0049: real time    0.0049
    CHARGE:  cpu time    0.1717: real time    0.1717
    MIXING:  cpu time    0.0110: real time    0.0110
    --------------------------------------------
      LOOP:  cpu time    3.5570: real time    3.7075

 eigenvalue-minimisations  :  3456
 total energy-change (2. order) :-0.1582524E-02  (-0.3369807E-03)
 number of electron     108.0000019 magnetization       0.8390225
 augmentation part       17.2796268 magnetization       0.3597838

 Broyden mixing:
  rms(total) = 0.16820E+00    rms(broyden)= 0.16820E+00
  rms(prec ) = 0.17093E+00
  weight for this iteration     100.00

 eigenvalues of (default mixing * dielectric matrix)
  average eigenvalue GAMMA=   2.5214
 12.3043  5.4892  5.4892  3.5624  3.5624  3.8150  1.1497  1.2149  1.2149  1.1824
  1.0840  1.0435  0.6785  0.6785  0.7654  0.7654  0.6931  0.6931

 Free energy of the ion-electron system (eV)
  ---------------------------------------------------
  alpha Z        PSCENC =       387.31279623
  Ewald energy   TEWEN  =     -5258.37574099
  -Hartree energ DENC   =     -2430.86975756
  -exchange      EXHF   =         0.00000000
  -V(xc)+E(xc)   XCENC  =       271.18073109
  PAW double counting   =     10090.57346019    -9972.24968442
  entropy T*S    EENTRO =        -0.01941358
  eigenvalues    EBANDS =      -616.99762625
  atomic energy  EATOM  =      7429.07371459
  Solvation  Ediel_sol  =         0.00000000
  ---------------------------------------------------
  free energy    TOTEN  =      -100.37152072 eV

  energy without entropy =     -100.35210713  energy(sigma->0) =     -100.36181393


--------------------------------------------------------------------------------------------------------




--------------------------------------- Iteration      1(  24)  ---------------------------------------


    POTLOK:  cpu time    0.0767: real time    0.2416
    SETDIJ:  cpu time    2.6527: real time    2.6527
    EDDIAG:  cpu time    0.2456: real time    0.2456
  RMM-DIIS:  cpu time    0.3610: real time    0.3610
    ORTHCH:  cpu time    0.0150: real time    0.0150
       DOS:  cpu time    0.0046: real time    0.0046
    CHARGE:  cpu time    0.1731: real time    0.1731
    MIXING:  cpu time    0.0111: real time    0.0111
    --------------------------------------------
      LOOP:  cpu time    3.5397: real time    3.7047

 eigenvalue-minimisations  :  3480
 total energy-change (2. order) :-0.1671042E-01  (-0.2329074E-02)
 number of electron     108.0000018 magnetization       0.9002597
 augmentation part       17.2651958 magnetization       0.4092876

 Broyden mixing:
  rms(total) = 0.35049E+00    rms(broyden)= 0.35049E+00
  rms(prec ) = 0.36640E+00
  weight for this iteration     100.00

 eigenvalues of (default mixing * dielectric matrix)
  average eigenvalue GAMMA=   2.7783
 16.4015  6.4041  5.2389  5.2389  3.5771  3.5771  1.2004  1.3149  1.3149  1.2898
  0.6785  0.6785  0.9970  0.9970  0.8614  0.8614  0.7545  0.7545  0.6478

 Free energy of the ion-electron system (eV)
  ---------------------------------------------------
  alpha Z        PSCENC =       387.31279623
  Ewald energy   TEWEN  =     -5258.37574099
  -Hartree energ DENC   =     -2428.84964277
  -exchange      EXHF   =         0.00000000
  -V(xc)+E(xc)   XCENC  =       271.06472626
  PAW double counting   =     10098.35662826    -9980.24118048
  entropy T*S    EENTRO =        -0.01394834
  eigenvalues    EBANDS =      -618.71558389
  atomic energy  EATOM  =      7429.07371459
  Solvation  Ediel_sol  =         0.00000000
  ---------------------------------------------------
  free energy    TOTEN  =      -100.38823113 eV

  energy without entropy =     -100.37428279  energy(sigma->0) =     -100.38125696


--------------------------------------------------------------------------------------------------------




--------------------------------------- Iteration      1(  25)  ---------------------------------------


    POTLOK:  cpu time    0.0770: real time    0.2470
    SETDIJ:  cpu time    2.6538: real time    2.6539
    EDDIAG:  cpu time    0.2445: real time    0.2446
  RMM-DIIS:  cpu time    0.3605: real time    0.3605
    ORTHCH:  cpu time    0.0155: real time    0.0155
       DOS:  cpu time    0.0047: real time    0.0047
    CHARGE:  cpu time    0.1727: real time    0.1727
    MIXING:  cpu time    0.0139: real time    0.0141
    --------------------------------------------
      LOOP:  cpu time    3.5426: real time    3.7130

 eigenvalue-minimisations  :  3471
 total energy-change (2. order) :-0.1682112E-01  (-0.2161328E-02)
 number of electron     108.0000018 magnetization       0.8577362
 augmentation part       17.2687025 magnetization       0.3718892

 Broyden mixing:
  rms(total) = 0.57583E+00    rms(broyden)= 0.57583E+00
  rms(prec ) = 0.59644E+00
  weight for this iteration     100.00

 eigenvalues of (default mixing * dielectric matrix)
  average eigenvalue GAMMA=   2.7272
 16.7525  5.8222  5.8222  4.8283  3.6106  3.6106  1.2230  1.9999  1.2626  1.2626
  1.0653  1.0653  0.9851  0.9851  0.6785  0.6785  0.7595  0.7595  0.6859  0.6859

 Free energy of the ion-electron system (eV)
  ---------------------------------------------------
  alpha Z        PSCENC =       387.31279623
  Ewald energy   TEWEN  =     -5258.37574099
  -Hartree energ DENC   =     -2426.38417858
  -exchange      EXHF   =         0.00000000
  -V(xc)+E(xc)   XCENC  =       270.95087621
  PAW double counting   =     10059.73732092    -9941.74130637
  entropy T*S    EENTRO =        -0.01200437
[...]

 k-point    10 :       0.0000    0.5000    0.5000
  band No.  band energies     occupation 
      1     -17.8103      1.00000
      2     -17.8103      1.00000
      3     -17.8103      1.00000
      4     -17.8103      1.00000
      5     -16.6009      1.00000
      6     -16.6009      1.00000
      7     -16.6009      1.00000
      8     -16.6009      1.00000
      9     -16.3418      1.00000
     10     -16.3418      1.00000
     11     -16.3418      1.00000
     12     -16.3418      1.00000
     13      -5.5619      1.00000
     14      -5.5619      1.00000
     15      -5.5619      1.00000
     16      -5.5619      1.00000
     17      -5.1068      1.00000
     18      -5.1068      1.00000
     19      -5.1068      1.00000
     20      -5.1068      1.00000
     21      -3.9693      1.00000
     22      -3.9693      1.00000
     23      -3.9693      1.00000
     24      -3.9693      1.00000
     25      -3.5142      1.00000
     26      -3.5142      1.00000
     27      -3.5142      1.00000
     28      -3.5142      1.00000
     29      -3.1265      1.00000
     30      -3.1265      1.00000
     31      -3.1265      1.00000
     32      -3.1265      1.00000
     33      -2.5163      1.00000
     34      -2.5163      1.00000
     35      -2.5163      1.00000
     36      -2.5163      1.00000
     37      -1.2071      1.00000
     38      -1.2071      1.00000
     39      -1.2071      1.00000
     40      -1.2071      1.00000
     41      -1.1624      1.00000
     42      -1.1624      1.00000
     43      -1.1624      1.00000
     44      -1.1624      1.00000
     45       0.3480      1.00000
     46       0.3480      1.00000
     47       0.3480      1.00000
     48       0.3480      1.00000
     49       1.2467      1.00000
     50       1.2467      1.00000
     51       1.2467      1.00000
     52       1.2467      1.00000
     53       1.4366      1.00000
     54       1.4366      1.00000
     55       1.4366      1.00000
     56       1.4366      1.00000
     57       1.7752      0.70657
     58       1.7752      0.70657
     59       1.7752      0.70657
     60       1.7752      0.70657
     61       3.1085      0.00000
     62       3.1085      0.00000
     63       3.1085      0.00000
     64       3.1085      0.00000
     65       6.0539      0.00000
     66       6.0539      0.00000
     67       6.0539      0.00000
     68       6.0539      0.00000
     69       9.7887      0.00000
     70       9.7887      0.00000
     71       9.7887      0.00000
     72       9.7887      0.00000

 k-point    11 :       0.2000    0.5000    0.5000
  band No.  band energies     occupation 
      1     -17.4412      1.00000
      2     -17.4412      1.00000
      3     -17.4412      1.00000
      4     -17.4412      1.00000
      5     -16.5834      1.00000
      6     -16.5834      1.00000
      7     -16.5834      1.00000
      8     -16.5834      1.00000
      9     -16.3313      1.00000
     10     -16.3313      1.00000
     11     -16.3313      1.00000
     12     -16.3313      1.00000
     13      -5.5463      1.00000
     14      -5.5463      1.00000
     15      -5.5463      1.00000
     16      -5.5463      1.00000
     17      -5.3949      1.00000
     18      -5.3949      1.00000
     19      -5.3949      1.00000
     20      -5.3949      1.00000
     21      -4.7586      1.00000
     22      -4.7586      1.00000
     23      -4.7586      1.00000
     24      -4.7586      1.00000
     25      -3.9790      1.00000
     26      -3.9790      1.00000
     27      -3.9790      1.00000
     28      -3.9790      1.00000
     29      -3.9472      1.00000
     30      -3.9472      1.00000
     31      -3.9472      1.00000
     32      -3.9472      1.00000
     33      -3.8675      1.00000
     34      -3.8675      1.00000
     35      -3.8675      1.00000
     36      -3.8675      1.00000
     37      -0.3204      1.00000
     38      -0.3204      1.00000
     39      -0.3204      1.00000
     40      -0.3204      1.00000
     41      -0.2654      1.00000
     42      -0.2654      1.00000
     43      -0.2654      1.00000
     44      -0.2654      1.00000
     45       0.3681      1.00000
     46       0.3681      1.00000
     47       0.3681      1.00000
     48       0.3681      1.00000
     49       1.2836      1.00000
     50       1.2836      1.00000
     51       1.2836      1.00000
     52       1.2836      1.00000
     53       1.5958      1.00000
     54       1.5958      1.00000
     55       1.5958      1.00000
     56       1.5958      1.00000
     57       1.8129      0.30027
     58       1.8129      0.30027
     59       1.8129      0.30027
     60       1.8129      0.30027
     61       5.3427      0.00000
     62       5.3427      0.00000
     63       5.3427      0.00000
     64       5.3427      0.00000
     65       6.0413      0.00000
     66       6.0413      0.00000
     67       6.0413      0.00000
     68       6.0413      0.00000
     69      10.1859      0.00000
     70      10.1859      0.00000
     71      10.1859      0.00000
     72      10.1859      0.00000

 k-point    12 :       0.4000    0.5000    0.5000
  band No.  band energies     occupation 
      1     -16.7661      1.00000
      2     -16.7661      1.00000
      3     -16.7661      1.00000
      4     -16.7661      1.00000
      5     -16.5034      1.00000
      6     -16.5034      1.00000
      7     -16.5034      1.00000
      8     -16.5034      1.00000
      9     -16.3141      1.00000
     10     -16.3141      1.00000
     11     -16.3141      1.00000
     12     -16.3141      1.00000
     13      -7.4817      1.00000
     14      -7.4817      1.00000
     15      -7.4817      1.00000
     16      -7.4817      1.00000
     17      -5.4994      1.00000
     18      -5.4994      1.00000
     19      -5.4994      1.00000
     20      -5.4994      1.00000
     21      -4.9769      1.00000
     22      -4.9769      1.00000
     23      -4.9769      1.00000
     24      -4.9769      1.00000
     25      -4.7871      1.00000
     26      -4.7871      1.00000
     27      -4.7871      1.00000
     28      -4.7871      1.00000
     29      -4.7449      1.00000
     30      -4.7449      1.00000
     31      -4.7449      1.00000
     32      -4.7449      1.00000
     33      -3.9063      1.00000
     34      -3.9063      1.00000
     35      -3.9063      1.00000
     36      -3.9063      1.00000
     37      -0.0113      1.00000
     38      -0.0113      1.00000
     39      -0.0113      1.00000
     40      -0.0113      1.00000
     41       0.2674      1.00000
     42       0.2674      1.00000
     43       0.2674      1.00000
     44       0.2674      1.00000
     45       0.4029      1.00000
     46       0.4029      1.00000
     47       0.4029      1.00000
     48       0.4029      1.00000
     49       1.7678      0.77432
     50       1.7678      0.77432
     51       1.7678      0.77432
     52       1.7678      0.77432
     53       2.2226      0.00000
     54       2.2226      0.00000
     55       2.2226      0.00000
     56       2.2226      0.00000
     57       2.3375      0.00000
     58       2.3375      0.00000
     59       2.3375      0.00000
     60       2.3375      0.00000
     61       6.0077      0.00000
     62       6.0077      0.00000
     63       6.0077      0.00000
     64       6.0077      0.00000
     65       7.5262      0.00000
     66       7.5262      0.00000
     67       7.5262      0.00000
     68       7.5262      0.00000
     69      11.0570      0.00000
     70      11.0570      0.00000
     71      11.0570      0.00000
     72      11.0570      0.00000


--------------------------------------------------------------------------------------------------------


 soft charge-density along one line, spin component           1
         0         1         2         3         4         5         6         7         8         9
 total charge-density along one line
 
 soft charge-density along one line, spin component           2
         0         1         2         3         4         5         6         7         8         9
 total charge-density along one line
 
 pseudopotential strength for first ion, spin component:           1
 12.740 -15.546  -0.000  -0.000   0.000   0.000   0.000  -0.000
-15.546  18.992   0.000   0.000  -0.000  -0.000  -0.000   0.000
 -0.000   0.000  -9.132  -0.000  -0.000  11.092   0.000   0.000
 -0.000   0.000  -0.000  -9.008  -0.000   0.000  10.929   0.000
  0.000  -0.000  -0.000  -0.000  -8.999   0.000   0.000  10.917
  0.000  -0.000  11.092   0.000   0.000 -13.345  -0.000  -0.000
  0.000  -0.000   0.000  10.929   0.000  -0.000 -13.132  -0.000
 -0.000   0.000   0.000   0.000  10.917  -0.000  -0.000 -13.114
 pseudopotential strength for first ion, spin component:           2
 12.727 -15.528   0.000  -0.000   0.000  -0.000   0.000  -0.000
-15.528  18.969  -0.000   0.000  -0.000   0.000  -0.000   0.000
  0.000  -0.000  -9.129  -0.000   0.000  11.088   0.000  -0.000
 -0.000   0.000  -0.000  -8.979  -0.000   0.000  10.889   0.000
  0.000  -0.000   0.000  -0.000  -8.992  -0.000   0.000  10.906
 -0.000   0.000  11.088   0.000  -0.000 -13.340  -0.000   0.000
  0.000  -0.000   0.000  10.889   0.000  -0.000 -13.075  -0.000
 -0.000   0.000  -0.000   0.000  10.906   0.000  -0.000 -13.100
 total augmentation occupancy for first ion, spin component:           1
  2.495   0.305  -0.000   0.000  -0.000  -0.000   0.000  -0.000
  0.305   0.069  -0.000   0.000  -0.000  -0.000   0.000  -0.000
 -0.000  -0.000   2.131   0.000   0.000   0.348   0.000  -0.000
  0.000   0.000   0.000   1.922   0.000  -0.000   0.135   0.000
 -0.000  -0.000   0.000   0.000   1.921  -0.000   0.000   0.138
 -0.000  -0.000   0.348  -0.000  -0.000   0.064   0.000  -0.000
  0.000   0.000   0.000   0.135   0.000   0.000   0.018   0.000
 -0.000  -0.000  -0.000   0.000   0.138  -0.000   0.000   0.018
 total augmentation occupancy for first ion, spin component:           2
 -0.003  -0.001  -0.000   0.000  -0.000  -0.000   0.000  -0.000
 -0.001   0.005  -0.000   0.000  -0.000  -0.000   0.000   0.000
 -0.000  -0.000  -0.004   0.000   0.000  -0.000  -0.000  -0.000
  0.000   0.000   0.000   0.022   0.000   0.000  -0.002   0.000
 -0.000  -0.000   0.000   0.000  -0.001  -0.000   0.000  -0.001
 -0.000  -0.000  -0.000   0.000  -0.000   0.000   0.000  -0.000
  0.000   0.000  -0.000  -0.002   0.000   0.000  -0.000   0.000
 -0.000   0.000  -0.000   0.000  -0.001  -0.000   0.000  -0.000


------------------------ aborting loop because EDIFF is reached ----------------------------------------


 


 total charge     
 
# of ion       s       p       d       tot
------------------------------------------
    1        1.559   3.431   0.000   4.991
    2        1.559   3.431   0.000   4.991
    3        1.559   3.431   0.000   4.991
    4        1.559   3.431   0.000   4.991
    5        1.566   3.421   0.000   4.987
    6        1.566   3.421   0.000   4.987
    7        1.566   3.421   0.000   4.987
    8        1.566   3.421   0.000   4.987
    9        1.559   3.431   0.000   4.991
   10        1.559   3.431   0.000   4.991
   11        1.559   3.431   0.000   4.991
   12        1.559   3.431   0.000   4.991
   13        0.672   1.089   6.628   8.388
   14        0.672   1.089   6.628   8.388
   15        0.672   1.089   6.628   8.388
   16        0.672   1.089   6.628   8.388
--------------------------------------------------
tot         21.423  45.490  26.510  93.423
 


 magnetization (x)
 
# of ion       s       p       d       tot
------------------------------------------
    1        0.005   0.017   0.000   0.022
    2        0.005   0.017   0.000   0.022
    3        0.005   0.017   0.000   0.022
    4        0.005   0.017   0.000   0.022
    5        0.004  -0.004   0.000  -0.000
    6        0.004  -0.004   0.000  -0.000
    7        0.004  -0.004   0.000  -0.000
    8        0.004  -0.004   0.000  -0.000
    9        0.005   0.017   0.000   0.022
   10        0.005   0.017   0.000   0.022
   11        0.005   0.017   0.000   0.022
   12        0.005   0.017   0.000   0.022
   13        0.000  -0.000   0.161   0.161
   14        0.000  -0.000   0.161   0.161
   15        0.000  -0.000   0.161   0.161
   16        0.000  -0.000   0.161   0.161
--------------------------------------------------
tot          0.056   0.120   0.646   0.821
 
    CHARGE:  cpu time    0.6024: real time    0.6024
    FORLOC:  cpu time    0.0070: real time    0.0070
    FORNL :  cpu time    0.2866: real time    0.2866
    STRESS:  cpu time    0.8755: real time    0.8756
    FORCOR:  cpu time    0.0798: real time    0.0798
    FORHAR:  cpu time    0.0114: real time    0.0114
    MIXING:  cpu time    0.0089: real time    0.0089
    OFIELD:  cpu time    0.0001: real time    0.0001

  FORCE on cell =-STRESS in cart. coord.  units (eV):
  Direction    XX          YY          ZZ          XY          YZ          ZX
  --------------------------------------------------------------------------------------
  Alpha Z   387.31280   387.31280   387.31280
  Ewald   -1680.57360 -1789.05207 -1788.76690     0.00000    -0.00000    -0.00000
  Hartree   832.59338   800.38986   800.52219    -0.00000    -0.00000    -0.00000
  E(xc)    -521.47609  -521.65277  -521.65552    -0.00000     0.00000    -0.00000
  Local    -980.79611  -855.25224  -855.67399     0.00000    -0.00000    -0.00000
  n-local  -279.91526  -279.88750  -279.80318     0.00000    -0.00000     0.00000
  augment   228.72619   232.57835   232.56950    -0.00000    -0.00000     0.00000
  Kinetic  2014.09559  2025.50340  2025.48917     0.00000     0.00000    -0.00000
  Fock        0.00000     0.00000     0.00000     0.00000     0.00000     0.00000
  -------------------------------------------------------------------------------------
  Total      -0.03310    -0.06016    -0.00593     0.00000     0.00000     0.00000
  in kB      -0.24240    -0.44053    -0.04344     0.00000     0.00000     0.00000
  external pressure =       -0.24 kB  Pullay stress =        0.00 kB


 VOLUME and BASIS-vectors are now :
 -----------------------------------------------------------------------------
  energy-cutoff  :      600.00
  volume of cell :      218.80
      direct lattice vectors                 reciprocal lattice vectors
     3.766980000  0.000000000  0.000000000     0.265464643  0.000000000  0.000000000
     0.000000000  7.621430000  0.000000000     0.000000000  0.131208973  0.000000000
     0.000000000  0.000000000  7.621200000     0.000000000  0.000000000  0.131212932

  length of vectors
     3.766980000  7.621430000  7.621200000     0.265464643  0.131208973  0.131212932


 FORCES acting on ions
    electron-ion (+dipol)            ewald-force                    non-local-force                 convergence-correction
 -----------------------------------------------------------------------------------------------
   -.406E-01 0.529E-02 0.296E-07   0.666E-01 -.313E-02 -.112E-13   -.273E-01 0.104E-02 -.614E-25   -.636E-03 -.297E-02 0.709E-12
   0.406E-01 -.529E-02 -.296E-07   -.666E-01 0.313E-02 0.102E-13   0.273E-01 -.104E-02 0.422E-25   0.636E-03 0.297E-02 -.456E-11
   0.406E-01 0.529E-02 -.255E-07   -.666E-01 -.313E-02 -.422E-14   0.273E-01 0.104E-02 -.408E-25   0.636E-03 -.297E-02 -.680E-11
   -.406E-01 -.529E-02 0.255E-07   0.666E-01 0.313E-02 0.103E-13   -.273E-01 -.104E-02 0.374E-25   -.636E-03 0.297E-02 -.562E-13
   -.247E-04 -.419E-01 0.929E-08   0.237E-04 0.543E-01 -.185E-13   0.349E-05 -.155E-01 -.153E-25   -.203E-05 0.156E-02 -.291E-11
   0.247E-04 0.419E-01 -.929E-08   -.237E-04 -.543E-01 -.129E-13   -.349E-05 0.155E-01 -.251E-25   0.203E-05 -.156E-02 0.299E-12
   0.247E-04 -.419E-01 0.928E-08   -.237E-04 0.543E-01 -.168E-13   -.349E-05 -.155E-01 0.704E-26   0.203E-05 0.156E-02 -.462E-12
   -.247E-04 0.419E-01 -.928E-08   0.237E-04 -.543E-01 0.296E-14   0.349E-05 0.155E-01 -.139E-25   -.203E-05 -.156E-02 -.221E-11
   0.795E-13 0.191E-13 0.103E-13   -.398E-14 -.930E-13 0.142E-13   -.159E-24 0.858E-24 -.182E-23   0.104E-12 -.111E-12 0.321E-12
   0.794E-13 0.191E-13 0.149E-12   -.524E-14 -.942E-13 -.213E-13   0.204E-24 0.116E-23 -.118E-23   0.104E-12 0.891E-12 0.229E-11
   0.773E-13 0.170E-12 0.583E-13   0.124E-14 0.661E-13 0.284E-13   0.106E-24 0.559E-25 0.700E-24   0.102E-12 -.674E-13 0.346E-12
   0.774E-13 0.170E-12 0.102E-12   -.181E-16 0.818E-13 -.284E-13   0.197E-24 0.479E-24 -.280E-23   0.103E-12 0.966E-12 0.202E-11
   -.294E-08 -.847E-02 0.333E-08   -.942E-06 0.398E-02 -.655E-14   -.260E-05 -.123E-01 -.338E-25   0.184E-05 0.463E-02 -.170E-11
   0.294E-08 0.847E-02 -.333E-08   0.942E-06 -.398E-02 0.349E-13   0.260E-05 0.123E-01 0.335E-25   -.184E-05 -.463E-02 -.937E-12
   0.294E-08 -.847E-02 0.333E-08   0.942E-06 0.398E-02 -.367E-14   0.260E-05 -.123E-01 0.314E-25   -.184E-05 0.463E-02 -.474E-12
   -.294E-08 0.847E-02 -.333E-08   -.942E-06 -.398E-02 0.320E-13   -.260E-05 0.123E-01 0.200E-25   0.184E-05 -.463E-02 -.196E-11
 -----------------------------------------------------------------------------------------------
   0.176E-11 -.448E-11 0.482E-11   -.289E-14 0.818E-13 0.941E-14   -.847E-21 -.173E-17 -.512E-23   0.672E-12 0.206E-11 -.161E-10
 
 
 POSITION                                       TOTAL-FORCE (eV/Angst)
 -----------------------------------------------------------------------------------
      0.00057      1.90566      1.90530        -0.002032      0.000230     -0.000000
      3.76641      5.71577      5.71590         0.002032     -0.000230     -0.000000
      3.76641      5.71638      1.90530         0.002032      0.000230      0.000000
      0.00057      1.90505      5.71590        -0.002032     -0.000230     -0.000000
      1.88349      0.00061      1.90530         0.000000     -0.001556      0.000000
      1.88349      7.62082      5.71590        -0.000000      0.001556      0.000000
      1.88349      3.81132      1.90530        -0.000000     -0.001556     -0.000000
      1.88349      3.81011      5.71590         0.000000      0.001556     -0.000000
      0.00000     -0.00000      0.00000        -0.000000      0.000000      0.000000
      0.00000      0.00000      3.81060        -0.000000     -0.000000      0.000000
      0.00000      3.81072      3.81060         0.000000      0.000000      0.000000
      0.00000      3.81072      0.00000         0.000000     -0.000000      0.000000
     -0.00000      0.00030      1.90530        -0.000002     -0.012134      0.000000
      0.00000      7.62113      5.71590         0.000002      0.012134      0.000000
      0.00000      3.81102      1.90530         0.000002     -0.012134      0.000000
     -0.00000      3.81041      5.71590        -0.000002      0.012134      0.000000
 -----------------------------------------------------------------------------------
    total drift:                                0.000000     -0.000000     -0.000000


--------------------------------------------------------------------------------------------------------



  FREE ENERGIE OF THE ION-ELECTRON SYSTEM (eV)
  ---------------------------------------------------
  free  energy   TOTEN  =      -100.37325228 eV

  energy  without entropy=     -100.35531502  energy(sigma->0) =     -100.36428365
 
 d Force =-0.2798592E-05[-0.683E-05, 0.123E-05]  d Energy =-0.1633567E-05-0.117E-05
 d Force = 0.1862965E-04[ 0.120E-04, 0.253E-04]  d Ewald  = 0.6690647E-01-0.669E-01


--------------------------------------------------------------------------------------------------------


    POTLOK:  cpu time    2.7288: real time    2.7288


--------------------------------------------------------------------------------------------------------


 stress matrix after NEB project (eV)
     -0.03310      0.00000      0.00000
      0.00000     -0.06016      0.00000
      0.00000      0.00000     -0.00593
  FORCES: max atom, RMS     0.012134    0.006201
  FORCE total and by dimension    0.024805    0.012134
  Stress total and by dimension    0.068923    0.060161
