 vasp.5.4.4.18Apr17-6-g9f103f2a35 (build Aug 21 2019 12:36:18) complex          
  
 executed on IFC18.0.1.163_CrayMP date 2019.08.29  10:56:34
 running on  330 total cores
 distrk:  each k-point on   66 cores,    5 groups
 distr:  one band on NCORES_PER_BAND=  11 cores,    6 groups


--------------------------------------------------------------------------------------------------------


 INCAR:
 POTCAR:    PAW_PBE O 08Apr2002                   
 POTCAR:    PAW_PBE Ir 06Sep2000                  

 ----------------------------------------------------------------------------- 
|                                                                             |
|           W    W    AA    RRRRR   N    N  II  N    N   GGGG   !!!           |
|           W    W   A  A   R    R  NN   N  II  NN   N  G    G  !!!           |
|           W    W  A    A  R    R  N N  N  II  N N  N  G       !!!           |
|           W WW W  AAAAAA  RRRRR   N  N N  II  N  N N  G  GGG   !            |
|           WW  WW  A    A  R   R   N   NN  II  N   NN  G    G                |
|           W    W  A    A  R    R  N    N  II  N    N   GGGG   !!!           |
|                                                                             |
|      You have enabled k-point parallelism (KPAR>1).                         |
|      This developmental code was originally  written by Paul Kent at ORNL,  |
|      and carefully double checked in Vienna.                                |
|      GW as well as linear response parallelism added by Martijn Marsman     |
|      and Georg Kresse.                                                      |
|      Carefully verify results versus KPAR=1.                                |
|      Report problems to Paul Kent and Vienna.                               |
|                                                                             |
 ----------------------------------------------------------------------------- 

 POTCAR:    PAW_PBE O 08Apr2002                   
   VRHFIN =O: s2p4                                                              
   LEXCH  = PE                                                                  
   EATOM  =   432.3788 eV,   31.7789 Ry                                         
                                                                                
   TITEL  = PAW_PBE O 08Apr2002                                                 
   LULTRA =        F    use ultrasoft PP ?                                      
   IUNSCR =        1    unscreen: 0-lin 1-nonlin 2-no                           
   RPACOR =    1.200    partial core radius                                     
   POMASS =   16.000; ZVAL   =    6.000    mass and valenz                      
   RCORE  =    1.520    outmost cutoff radius                                   
   RWIGS  =    1.550; RWIGS  =    0.820    wigner-seitz radius (au A)           
   ENMAX  =  400.000; ENMIN  =  300.000 eV                                      
   ICORE  =        2    local potential                                         
   LCOR   =        T    correct aug charges                                     
   LPAW   =        T    paw PP                                                  
   EAUG   =  605.392                                                            
   DEXC   =    0.000                                                            
   RMAX   =    1.553    core radius for proj-oper                               
   RAUG   =    1.300    factor for augmentation sphere                          
   RDEP   =    1.550    radius for radial grids                                 
   RDEPT  =    1.329    core radius for aug-charge                              
                                                                                
   Atomic configuration                                                         
    4 entries                                                                   
     n  l   j            E        occ.                                          
     1  0  0.50      -514.6923   2.0000                                         
     2  0  0.50       -23.9615   2.0000                                         
     2  1  0.50        -9.0305   4.0000                                         
     3  2  1.50        -9.5241   0.0000                                         
   Description                                                                  
     l       E           TYP  RCUT    TYP  RCUT                                 
     0    -23.9615318     23  1.200                                             
     0     -9.5240782     23  1.200                                             
     1     -9.0304911     23  1.520                                             
     1      8.1634956     23  1.520                                             
     2     -9.5240782      7  1.500                                             
  local pseudopotential read in
  partial core-charges read in
  partial kinetic energy density read in
  kinetic energy density of atom read in
  atomic valenz-charges read in
  non local Contribution for L=           0  read in
    real space projection operators read in
  non local Contribution for L=           0  read in
    real space projection operators read in
  non local Contribution for L=           1  read in
    real space projection operators read in
  non local Contribution for L=           1  read in
    real space projection operators read in
    PAW grid and wavefunctions read in
 
   number of l-projection  operators is LMAX  =           4
   number of lm-projection operators is LMMAX =           8
 
 POTCAR:    PAW_PBE Ir 06Sep2000                  
   VRHFIN =Ir: s1d8                                                             
   LEXCH  = PE                                                                  
   EATOM  =   560.1833 eV,   41.1723 Ry                                         
                                                                                
   TITEL  = PAW_PBE Ir 06Sep2000                                                
   LULTRA =        F    use ultrasoft PP ?                                      
   IUNSCR =        1    unscreen: 0-lin 1-nonlin 2-no                           
   RPACOR =    2.250    partial core radius                                     
   POMASS =  192.220; ZVAL   =    9.000    mass and valenz                      
   RCORE  =    2.600    outmost cutoff radius                                   
   RWIGS  =    2.690; RWIGS  =    1.423    wigner-seitz radius (au A)           
   ENMAX  =  210.864; ENMIN  =  158.148 eV                                      
   RCLOC  =    1.857    cutoff for local pot                                    
   LCOR   =        T    correct aug charges                                     
   LPAW   =        T    paw PP                                                  
   EAUG   =  318.962                                                            
   DEXC   =    0.000                                                            
   RMAX   =    2.667    core radius for proj-oper                               
   RAUG   =    1.300    factor for augmentation sphere                          
   RDEP   =    2.748    radius for radial grids                                 
   RDEPT  =    2.300    core radius for aug-charge                              
                                                                                
   Atomic configuration                                                         
   16 entries                                                                   
     n  l   j            E        occ.                                          
     1  0  0.50    -76100.0449   2.0000                                         
     2  0  0.50    -13308.1683   2.0000                                         
     2  1  1.50    -11558.0021   6.0000                                         
     3  0  0.50     -3110.7274   2.0000                                         
     3  1  1.50     -2599.2109   6.0000                                         
     3  2  2.50     -2037.1515  10.0000                                         
     4  0  0.50      -661.6001   2.0000                                         
     4  1  1.50      -493.8981   6.0000                                         
     4  2  2.50      -288.1909  10.0000                                         
     4  3  3.50       -59.5718  14.0000                                         
     5  0  0.50       -95.3879   2.0000                                         
     5  1  1.50       -52.2747   6.0000                                         
     5  2  2.50        -5.4180   8.0000                                         
     6  0  0.50        -5.5479   1.0000                                         
     6  1  1.50        -6.8029   0.0000                                         
     5  3  2.50        -1.3606   0.0000                                         
   Description                                                                  
     l       E           TYP  RCUT    TYP  RCUT                                 
     2     -5.4179967     23  2.600                                             
     2     -6.7785793     23  2.600                                             
     0     -5.5478636     23  2.600                                             
     0      2.2542272     23  2.600                                             
     1     -2.7211652     23  2.600                                             
     1     20.4087390     23  2.600                                             
  local pseudopotential read in
  partial core-charges read in
  partial kinetic energy density read in
  atomic valenz-charges read in
  non local Contribution for L=           2  read in
    real space projection operators read in
  non local Contribution for L=           2  read in
    real space projection operators read in
  non local Contribution for L=           0  read in
    real space projection operators read in
  non local Contribution for L=           0  read in
    real space projection operators read in
  non local Contribution for L=           1  read in
    real space projection operators read in
  non local Contribution for L=           1  read in
    real space projection operators read in
    PAW grid and wavefunctions read in
 
   number of l-projection  operators is LMAX  =           6
   number of lm-projection operators is LMMAX =          18
 
 Optimization of the real space projectors (new method)

 maximal supplied QI-value         = 24.76
 optimisation between [QCUT,QGAM] = [ 12.38, 25.00] = [ 42.90,175.06] Ry 
 Optimized for a Real-space Cutoff    1.16 Angstroem

   l    n(q)    QCUT    max X(q) W(low)/X(q) W(high)/X(q)  e(spline) 
   0      9    12.378    20.381    0.16E-03    0.67E-05    0.31E-06
   0      9    12.378    15.268    0.17E-03    0.81E-05    0.33E-06
   1      8    12.378     5.964    0.20E-03    0.16E-03    0.30E-06
   1      8    12.378     5.382    0.18E-03    0.14E-03    0.26E-06
 Optimization of the real space projectors (new method)

 maximal supplied QI-value         = 14.36
 optimisation between [QCUT,QGAM] = [ 12.49, 24.99] = [ 43.72,174.87] Ry 
 Optimized for a Real-space Cutoff    1.47 Angstroem

   l    n(q)    QCUT    max X(q) W(low)/X(q) W(high)/X(q)  e(spline) 
   2     10    12.495   134.116    0.21E-03    0.83E-03    0.17E-05
   2     10    12.495   130.192    0.21E-03    0.83E-03    0.17E-05
   0     11    12.495    60.310    0.70E-04    0.17E-03    0.90E-06
   0     11    12.495    39.218    0.65E-04    0.15E-03    0.85E-06
   1     11    12.495    18.439    0.21E-03    0.37E-04    0.78E-06
   1     11    12.495    12.760    0.17E-03    0.26E-04    0.62E-06
  PAW_PBE O 08Apr2002                   :
 energy of atom  1       EATOM= -432.3788
 kinetic energy error for atom=    0.0168 (will be added to EATOM!!)
  PAW_PBE Ir 06Sep2000                  :
 energy of atom  2       EATOM= -560.1833
 kinetic energy error for atom=    0.0008 (will be added to EATOM!!)
 
 
 POSCAR:  O Ir                                   
  positions in cartesian coordinates
  No initial velocities read in
 exchange correlation table for  LEXCH =        8
   RHO(1)=    0.500       N(1)  =     2000
   RHO(2)=  100.500       N(2)  =     4000

 VTST: version 3.2, (02/03/18)

 CHAIN: initializing optimizer
 
 OPT: Using VASP Conjugate-Gradient optimizer
 CHAIN: Read ICHAIN            0
 
 POSCAR:  O Ir                                   
  positions in cartesian coordinates
  No initial velocities read in
 


--------------------------------------------------------------------------------------------------------


 ion  position               nearest neighbor table
   1  0.000  0.250  0.250-  15 1.91  13 1.91
   2  1.000  0.750  0.750-  16 1.91  14 1.91
   3  1.000  0.750  0.250-  13 1.91  15 1.91
   4  0.000  0.250  0.750-  14 1.91  16 1.91
   5  0.500  0.000  0.250-  13 1.88  13 1.88
   6  0.500  1.000  0.750-  14 1.88  14 1.88
   7  0.500  0.500  0.250-  15 1.88  15 1.88
   8  0.500  0.500  0.750-  16 1.88  16 1.88
   9  0.000  0.000  0.000-  13 1.91  14 1.91
  10  0.000  0.000  0.500-  13 1.91  14 1.91
  11  0.000  0.500  0.500-  15 1.91  16 1.91
  12  0.000  0.500  0.000-  15 1.91  16 1.91
  13  0.000  0.000  0.250-   5 1.88   5 1.88   3 1.91  10 1.91   9 1.91   1 1.91
  14  0.000  1.000  0.750-   6 1.88   6 1.88   4 1.91  10 1.91   9 1.91   2 1.91
  15  0.000  0.500  0.250-   7 1.88   7 1.88   1 1.91  12 1.91  11 1.91   3 1.91
  16  0.000  0.500  0.750-   8 1.88   8 1.88   2 1.91  12 1.91  11 1.91   4 1.91
 
  LATTYP: Found a simple orthorhombic cell.
 ALAT       =     3.7672000000
 B/A-ratio  =     2.0230250584
 C/A-ratio  =     2.0230808027
  
  Lattice vectors:
  
 A1 = (   3.7672000000,   0.0000000000,   0.0000000000)
 A2 = (   0.0000000000,   7.6211400000,   0.0000000000)
 A3 = (   0.0000000000,   0.0000000000,   7.6213500000)


Analysis of symmetry for initial positions (statically):
=====================================================================
 Subroutine PRICEL returns:
 Original cell was already a primitive cell.
 

 Routine SETGRP: Setting up the symmetry group for a 
 simple orthorhombic supercell.


 Subroutine GETGRP returns: Found  8 space group operations
 (whereof  2 operations were pure point group operations)
 out of a pool of  8 trial point group operations.


The static configuration has the point symmetry S_2 .
 The point group associated with its full space group is D_2h.


Analysis of symmetry for dynamics (positions and initial velocities):
=====================================================================
 Subroutine PRICEL returns:
 Original cell was already a primitive cell.
 

 Routine SETGRP: Setting up the symmetry group for a 
 simple orthorhombic supercell.


 Subroutine GETGRP returns: Found  8 space group operations
 (whereof  2 operations were pure point group operations)
 out of a pool of  8 trial point group operations.


The dynamic configuration has the point symmetry S_2 .
 The point group associated with its full space group is D_2h.


Analysis of structural, dynamic, and magnetic symmetry:
=====================================================================
 Subroutine PRICEL returns:
 Original cell was already a primitive cell.
 

 Routine SETGRP: Setting up the symmetry group for a 
 simple orthorhombic supercell.


 Subroutine GETGRP returns: Found  8 space group operations
 (whereof  2 operations were pure point group operations)
 out of a pool of  8 trial point group operations.


The magnetic configuration has the point symmetry S_2 .
 The point group associated with its full space group is D_2h.


 Subroutine INISYM returns: Found  8 space group operations
 (whereof  2 operations are pure point group operations),
 and found     1 'primitive' translations

 
 
 KPOINTS: KPOINTS created by Atomic Simulation Env

Automatic generation of k-mesh.
Space group operators:
 irot       det(A)        alpha          n_x          n_y          n_z        tau_x        tau_y        tau_z
    1     1.000000     0.000000     1.000000     0.000000     0.000000     0.000000     0.000000     0.000000
    2    -1.000000     0.000000     1.000000     0.000000     0.000000     0.000000     0.000000     0.000000
    3     1.000000   180.000000     0.000000     0.000000     1.000000     0.000000     0.000000     0.500000
    4    -1.000000   180.000000     0.000000     0.000000     1.000000     0.000000     0.000000     0.500000
    5     1.000000   180.000000     0.000000     1.000000     0.000000     0.000000     0.500000     0.500000
    6    -1.000000   180.000000     0.000000     1.000000     0.000000     0.000000     0.500000     0.500000
    7     1.000000   180.000000     1.000000     0.000000     0.000000     0.000000     0.500000     0.000000
    8    -1.000000   180.000000     1.000000     0.000000     0.000000     0.000000     0.500000     0.000000
 
 Subroutine IBZKPT returns following result:
 ===========================================
 
 Found     12 irreducible k-points:
 
 Following reciprocal coordinates:
            Coordinates               Weight
  0.000000  0.000000  0.000000      1.000000
  0.200000  0.000000  0.000000      2.000000
  0.400000  0.000000  0.000000      2.000000
  0.000000  0.500000  0.000000      1.000000
  0.200000  0.500000  0.000000      2.000000
  0.400000  0.500000  0.000000      2.000000
  0.000000  0.000000  0.500000      1.000000
  0.200000  0.000000  0.500000      2.000000
  0.400000  0.000000  0.500000      2.000000
  0.000000  0.500000  0.500000      1.000000
  0.200000  0.500000  0.500000      2.000000
  0.400000  0.500000  0.500000      2.000000
 
 Following cartesian coordinates:
            Coordinates               Weight
  0.000000  0.000000  0.000000      1.000000
  0.053090  0.000000  0.000000      2.000000
  0.106180  0.000000  0.000000      2.000000
  0.000000  0.065607  0.000000      1.000000
  0.053090  0.065607  0.000000      2.000000
  0.106180  0.065607  0.000000      2.000000
  0.000000  0.000000  0.065605      1.000000
  0.053090  0.000000  0.065605      2.000000
  0.106180  0.000000  0.065605      2.000000
  0.000000  0.065607  0.065605      1.000000
  0.053090  0.065607  0.065605      2.000000
  0.106180  0.065607  0.065605      2.000000
 


--------------------------------------------------------------------------------------------------------




 Dimension of arrays:
   k-points           NKPTS =     12   k-points in BZ     NKDIM =     12   number of bands    NBANDS=     72
   number of dos      NEDOS =    301   number of ions     NIONS =     16
   non local maximal  LDIM  =      6   non local SUM 2l+1 LMDIM =     18
   total plane-waves  NPLWV = 122880
   max r-space proj   IRMAX =   7533   max aug-charges    IRDMAX=  40804
   dimension x,y,z NGX =    30 NGY =   64 NGZ =   64
   dimension x,y,z NGXF=    60 NGYF=  128 NGZF=  128
   support grid    NGXF=    60 NGYF=  128 NGZF=  128
   ions per type =              12   4
   NGX,Y,Z   is equivalent  to a cutoff of  13.24, 13.96, 13.96 a.u.
   NGXF,Y,Z  is equivalent  to a cutoff of  26.48, 27.92, 27.92 a.u.

 SYSTEM =  unknown system                          
 POSCAR =   O Ir                                   

 Startparameter for this run:
   NWRITE =      2    write-flag & timer
   PREC   = accura    normal or accurate (medium, high low for compatibility)
   ISTART =      0    job   : 0-new  1-cont  2-samecut
   ICHARG =      2    charge: 1-file 2-atom 10-const
   ISPIN  =      2    spin polarized calculation?
   LNONCOLLINEAR =      F non collinear calculations
   LSORBIT =      F    spin-orbit coupling
   INIWAV =      1    electr: 0-lowe 1-rand  2-diag
   LASPH  =      T    aspherical Exc in radial PAW
   METAGGA=      F    non-selfconsistent MetaGGA calc.

 Electronic Relaxation 1
   ENCUT  =  600.0 eV  44.10 Ry    6.64 a.u.   7.52 15.22 15.22*2*pi/ulx,y,z
   ENINI  =  600.0     initial cutoff
   ENAUG  =  605.4 eV  augmentation charge cutoff
   NELM   =    220;   NELMIN=  2; NELMDL= -5     # of ELM steps 
   EDIFF  = 0.1E-05   stopping-criterion for ELM
   LREAL  =      T    real-space projection
   NLSPLINE    = F    spline interpolate recip. space projectors
   LCOMPAT=      F    compatible to vasp.4.4
   GGA_COMPAT  = T    GGA compatible to vasp.4.4-vasp.4.6
   LMAXPAW     = -100 max onsite density
   LMAXMIX     =    6 max onsite mixed and CHGCAR
   VOSKOWN=      0    Vosko Wilk Nusair interpolation
   ROPT   =   -0.00025  -0.00025
 Ionic relaxation
   EDIFFG = -.1E-02   stopping-criterion for IOM
   NSW    =    150    number of steps for IOM
   NBLOCK =      1;   KBLOCK =    150    inner block; outer block 
   IBRION =      2    ionic relax: 0-MD 1-quasi-New 2-CG
   NFREE  =      1    steps in history (QN), initial steepest desc. (CG)
   ISIF   =      3    stress and relaxation
   IWAVPR =     11    prediction:  0-non 1-charg 2-wave 3-comb
   ISYM   =      2    0-nonsym 1-usesym 2-fastsym
   LCORR  =      T    Harris-Foulkes like correction to forces

   POTIM  = 0.0300    time-step for ionic-motion
   TEIN   =    0.0    initial temperature
   TEBEG  =    0.0;   TEEND  =   0.0 temperature during run
   SMASS  =  -3.00    Nose mass-parameter (am)
   estimated Nose-frequenzy (Omega)   =  0.10E-29 period in steps =****** mass=  -0.324E-27a.u.
   SCALEE = 1.0000    scale energy and forces
   NPACO  =    256;   APACO  = 16.0  distance and # of slots for P.C.
   PSTRESS=    0.0 pullay stress

  Mass of Ions in am
   POMASS =  16.00192.22
  Ionic Valenz
   ZVAL   =   6.00  9.00
  Atomic Wigner-Seitz radii
   RWIGS  =  -1.00 -1.00
  virtual crystal weights 
   VCA    =   1.00  1.00
   NELECT =     108.0000    total number of electrons
   NUPDOWN=      -1.0000    fix difference up-down

 DOS related values:
   EMIN   =  10.00;   EMAX   =-10.00  energy-range for DOS
   EFERMI =   0.00
   ISMEAR =     0;   SIGMA  =   0.05  broadening in eV -4-tet -1-fermi 0-gaus

 Electronic relaxation 2 (details)
   IALGO  =     68    algorithm
   LDIAG  =      T    sub-space diagonalisation (order eigenvalues)
   LSUBROT=      F    optimize rotation matrix (better conditioning)
   TURBO    =      0    0=normal 1=particle mesh
   IRESTART =      0    0=no restart 2=restart with 2 vectors
   NREBOOT  =      0    no. of reboots
   NMIN     =      0    reboot dimension
   EREF     =   0.00    reference energy to select bands
   IMIX   =      4    mixing-type and parameters
     AMIX     =   0.20;   BMIX     =  0.00
     AMIX_MAG =   0.10;   BMIX_MAG =  0.00
     AMIN     =   0.10
     WC   =   100.;   INIMIX=   0;  MIXPRE=   1;  MAXMIX= -45

 Intra band minimization:
   WEIMIN = 0.0010     energy-eigenvalue tresh-hold
   EBREAK =  0.35E-08  absolut break condition
   DEPER  =   0.30     relativ break condition  

   TIME   =   0.40     timestep for ELM

  volume/ion in A,a.u.               =      13.68        92.29
  Fermi-wavevector in a.u.,A,eV,Ry     =   1.293776  2.444883 22.774214  1.673858
  Thomas-Fermi vector in A             =   2.425401
 
 Write flags
   LWAVE        =      T    write WAVECAR
   LDOWNSAMPLE  =      F    k-point downsampling of WAVECAR
   LCHARG       =      T    write CHGCAR
   LVTOT        =      F    write LOCPOT, total local potential
   LVHAR        =      F    write LOCPOT, Hartree potential only
   LELF         =      F    write electronic localiz. function (ELF)
   LORBIT       =     11    0 simple, 1 ext, 2 COOP (PROOUT), +10 PAW based schemes


 Dipole corrections
   LMONO  =      F    monopole corrections only (constant potential shift)
   LDIPOL =      F    correct potential (dipole corrections)
   IDIPOL =      0    1-x, 2-y, 3-z, 4-all directions 
   EPSILON=  1.0000000 bulk dielectric constant

 Exchange correlation treatment:
   GGA     =    PE    GGA type
   LEXCH   =     8    internal setting for exchange type
   VOSKOWN=      0    Vosko Wilk Nusair interpolation
   LHFCALC =     F    Hartree Fock is set to
   LHFONE  =     F    Hartree Fock one center treatment
   AEXX    =    0.0000 exact exchange contribution

 Linear response parameters
   LEPSILON=     F    determine dielectric tensor
   LRPA    =     F    only Hartree local field effects (RPA)
   LNABLA  =     F    use nabla operator in PAW spheres
   LVEL    =     F    velocity operator in full k-point grid
   LINTERFAST=   F  fast interpolation
   KINTER  =     0    interpolate to denser k-point grid
   CSHIFT  =0.1000    complex shift for real part using Kramers Kronig
   OMEGAMAX=  -1.0    maximum frequency
   DEG_THRESHOLD= 0.2000000E-02 threshold for treating states as degnerate
   RTIME   =   -0.100 relaxation time in fs
  (WPLASMAI=    0.000 imaginary part of plasma frequency in eV, 0.658/RTIME)
   DFIELD  = 0.0000000 0.0000000 0.0000000 field for delta impulse in time
 
 Orbital magnetization related:
   ORBITALMAG=     F  switch on orbital magnetization
   LCHIMAG   =     F  perturbation theory with respect to B field
   DQ        =  0.001000  dq finite difference perturbation B field
   LLRAUG    =     F  two centre corrections for induced B field



--------------------------------------------------------------------------------------------------------


 conjugate gradient relaxation of ions
 charge density and potential will be updated during run
 spin polarized calculation
 RMM-DIIS sequential band-by-band and
  variant of blocked Davidson during initial phase
 perform sub-space diagonalisation
    before iterative eigenvector-optimisation
 modified Broyden-mixing scheme, WC =      100.0
 initial mixing is a simple linear mixing with ALPHA =  0.2000
 Hartree-type preconditioning will be used
 using additional bands           18
 real space projection scheme for non local part
 use partial core corrections
 calculate Harris-corrections to forces 
   (improved forces if not selfconsistent)
 use gradient corrections 
 use of overlap-Matrix (Vanderbilt PP)
 Gauss-broadening in eV      SIGMA  =   0.05


--------------------------------------------------------------------------------------------------------


  energy-cutoff  :      600.00
  volume of cell :      218.81
      direct lattice vectors                 reciprocal lattice vectors
     3.767200000  0.000000000  0.000000000     0.265449140  0.000000000  0.000000000
     0.000000000  7.621140000  0.000000000     0.000000000  0.131213965  0.000000000
     0.000000000  0.000000000  7.621350000     0.000000000  0.000000000  0.131210350

  length of vectors
     3.767200000  7.621140000  7.621350000     0.265449140  0.131213965  0.131210350


 
 k-points in units of 2pi/SCALE and weight: KPOINTS created by Atomic Simulation Env
   0.00000000  0.00000000  0.00000000       0.050
   0.05308983  0.00000000  0.00000000       0.100
   0.10617966  0.00000000  0.00000000       0.100
   0.00000000  0.06560698  0.00000000       0.050
   0.05308983  0.06560698  0.00000000       0.100
   0.10617966  0.06560698  0.00000000       0.100
   0.00000000  0.00000000  0.06560517       0.050
   0.05308983  0.00000000  0.06560517       0.100
   0.10617966  0.00000000  0.06560517       0.100
   0.00000000  0.06560698  0.06560517       0.050
   0.05308983  0.06560698  0.06560517       0.100
   0.10617966  0.06560698  0.06560517       0.100
 
 k-points in reciprocal lattice and weights: KPOINTS created by Atomic Simulation Env
   0.00000000  0.00000000  0.00000000       0.050
   0.20000000  0.00000000  0.00000000       0.100
   0.40000000  0.00000000  0.00000000       0.100
   0.00000000  0.50000000  0.00000000       0.050
   0.20000000  0.50000000  0.00000000       0.100
   0.40000000  0.50000000  0.00000000       0.100
   0.00000000  0.00000000  0.50000000       0.050
   0.20000000  0.00000000  0.50000000       0.100
   0.40000000  0.00000000  0.50000000       0.100
   0.00000000  0.50000000  0.50000000       0.050
   0.20000000  0.50000000  0.50000000       0.100
   0.40000000  0.50000000  0.50000000       0.100
 
 position of ions in fractional coordinates (direct lattice) 
   0.00014000  0.25004000  0.25000000
   0.99986000  0.74996000  0.75000000
   0.99986000  0.75004000  0.25000000
   0.00014000  0.24996000  0.75000000
   0.50000000  0.00008000  0.25000000
   0.50000000  0.99992000  0.75000000
   0.50000000  0.50008000  0.25000000
   0.50000000  0.49992000  0.75000000
   0.00000000  0.00000000  0.00000000
   0.00000000  0.00000000  0.50000000
   0.00000000  0.50000000  0.50000000
   0.00000000  0.50000000  0.00000000
   0.00000000  0.00002000  0.25000000
   0.00000000  0.99998000  0.75000000
   0.00000000  0.50002000  0.25000000
   0.00000000  0.49998000  0.75000000
 
 position of ions in cartesian coordinates  (Angst):
   0.00052741  1.90558985  1.90533750
   3.76667259  5.71555015  5.71601250
   3.76667259  5.71615985  1.90533750
   0.00052741  1.90498015  5.71601250
   1.88360000  0.00060969  1.90533750
   1.88360000  7.62053031  5.71601250
   1.88360000  3.81117969  1.90533750
   1.88360000  3.80996031  5.71601250
   0.00000000  0.00000000  0.00000000
   0.00000000  0.00000000  3.81067500
   0.00000000  3.81057000  3.81067500
   0.00000000  3.81057000  0.00000000
   0.00000000  0.00015242  1.90533750
   0.00000000  7.62098758  5.71601250
   0.00000000  3.81072242  1.90533750
   0.00000000  3.81041758  5.71601250
 


--------------------------------------------------------------------------------------------------------


 k-point  1 :   0.0000 0.0000 0.0000  plane waves:    7283
 k-point  2 :   0.2000 0.0000 0.0000  plane waves:    7307
 k-point  3 :   0.4000 0.0000 0.0000  plane waves:    7295
 k-point  4 :   0.0000 0.5000 0.0000  plane waves:    7334
 k-point  5 :   0.2000 0.5000 0.0000  plane waves:    7328
 k-point  6 :   0.4000 0.5000 0.0000  plane waves:    7264
 k-point  7 :   0.0000 0.0000 0.5000  plane waves:    7334
 k-point  8 :   0.2000 0.0000 0.5000  plane waves:    7328
 k-point  9 :   0.4000 0.0000 0.5000  plane waves:    7264
 k-point 10 :   0.0000 0.5000 0.5000  plane waves:    7308
 k-point 11 :   0.2000 0.5000 0.5000  plane waves:    7320
 k-point 12 :   0.4000 0.5000 0.5000  plane waves:    7280

 maximum and minimum number of plane-waves per node :       678      649

 maximum number of plane-waves:      7334
 maximum index in each direction: 
   IXMAX=    7   IYMAX=   15   IZMAX=   15
   IXMIN=   -7   IYMIN=  -15   IZMIN=  -15


 real space projection operators:
  total allocation   :       6805.69 KBytes
  max/ min on nodes  :        787.88        274.12


 parallel 3D FFT for wavefunctions:
    minimum data exchange during FFTs selected (reduces bandwidth)
 parallel 3D FFT for charge:
    minimum data exchange during FFTs selected (reduces bandwidth)


 total amount of memory used by VASP MPI-rank0    39491. kBytes
=======================================================================

   base      :      30000. kBytes
   nonlr-proj:       2912. kBytes
   fftplans  :        939. kBytes
   grid      :       2316. kBytes
   one-center:         62. kBytes
   wavefun   :       3262. kBytes
 
     INWAV:  cpu time    0.0002: real time    0.0002
 Broyden mixing: mesh for mixing (old mesh)
   NGX = 15   NGY = 31   NGZ = 31
  (NGX  = 60   NGY  =128   NGZ  =128)
  gives a total of  14415 points

 initial charge density was supplied:
 charge density of overlapping atoms calculated
 number of electron     108.0000000 magnetization      16.0000000
 keeping initial charge density in first step


--------------------------------------------------------------------------------------------------------


 Maximum index for non-local projection operator          767
 Maximum index for augmentation-charges         1457 (set IRDMAX)


--------------------------------------------------------------------------------------------------------


 First call to EWALD:  gamma=   0.294
 Maximum number of real-space cells 4x 2x 2
 Maximum number of reciprocal cells 2x 3x 3

    FEWALD:  cpu time    0.0071: real time    0.0078


--------------------------------------- Iteration      1(   1)  ---------------------------------------


    POTLOK:  cpu time    0.0958: real time    0.1577
    SETDIJ:  cpu time    2.6684: real time    2.6743
     EDDAV:  cpu time    0.9182: real time    1.0202
       DOS:  cpu time    0.0076: real time    0.0119
    --------------------------------------------
      LOOP:  cpu time    3.6902: real time    3.8642

 eigenvalue-minimisations  :  3456
 total energy-change (2. order) : 0.1190531E+04  (-0.5779162E+04)
 number of electron     108.0000000 magnetization      16.0000000
 augmentation part      108.0000000 magnetization      16.0000000

 Free energy of the ion-electron system (eV)
  ---------------------------------------------------
  alpha Z        PSCENC =       387.29729205
  Ewald energy   TEWEN  =     -5258.31042347
  -Hartree energ DENC   =     -2400.60883338
  -exchange      EXHF   =         0.00000000
  -V(xc)+E(xc)   XCENC  =       264.59050245
  PAW double counting   =      6362.12184073    -6222.39335305
  entropy T*S    EENTRO =        -0.00599450
  eigenvalues    EBANDS =       628.76652356
  atomic energy  EATOM  =      7429.07371459
  Solvation  Ediel_sol  =         0.00000000
  ---------------------------------------------------
  free energy    TOTEN  =      1190.53126897 eV

  energy without entropy =     1190.53726347  energy(sigma->0) =     1190.53426622


--------------------------------------------------------------------------------------------------------




--------------------------------------- Iteration      1(   2)  ---------------------------------------


     EDDAV:  cpu time    0.8883: real time    0.9384
       DOS:  cpu time    0.0062: real time    0.0062
    --------------------------------------------
      LOOP:  cpu time    0.8945: real time    0.9446

 eigenvalue-minimisations  :  3492
 total energy-change (2. order) :-0.1159906E+04  (-0.1099920E+04)
 number of electron     108.0000000 magnetization      16.0000000
 augmentation part      108.0000000 magnetization      16.0000000

 Free energy of the ion-electron system (eV)
  ---------------------------------------------------
  alpha Z        PSCENC =       387.29729205
  Ewald energy   TEWEN  =     -5258.31042347
  -Hartree energ DENC   =     -2400.60883338
  -exchange      EXHF   =         0.00000000
  -V(xc)+E(xc)   XCENC  =       264.59050245
  PAW double counting   =      6362.12184073    -6222.39335305
  entropy T*S    EENTRO =        -0.00904049
  eigenvalues    EBANDS =      -531.13597136
  atomic energy  EATOM  =      7429.07371459
  Solvation  Ediel_sol  =         0.00000000
  ---------------------------------------------------
  free energy    TOTEN  =        30.62572807 eV

  energy without entropy =       30.63476856  energy(sigma->0) =       30.63024831


--------------------------------------------------------------------------------------------------------




--------------------------------------- Iteration      1(   3)  ---------------------------------------


     EDDAV:  cpu time    1.1257: real time    1.1741
       DOS:  cpu time    0.0048: real time    0.0048
    --------------------------------------------
      LOOP:  cpu time    1.1304: real time    1.1789

 eigenvalue-minimisations  :  4716
 total energy-change (2. order) :-0.1603146E+03  (-0.1521083E+03)
 number of electron     108.0000000 magnetization      16.0000000
 augmentation part      108.0000000 magnetization      16.0000000

 Free energy of the ion-electron system (eV)
  ---------------------------------------------------
  alpha Z        PSCENC =       387.29729205
  Ewald energy   TEWEN  =     -5258.31042347
  -Hartree energ DENC   =     -2400.60883338
  -exchange      EXHF   =         0.00000000
  -V(xc)+E(xc)   XCENC  =       264.59050245
  PAW double counting   =      6362.12184073    -6222.39335305
  entropy T*S    EENTRO =        -0.01446300
  eigenvalues    EBANDS =      -691.44510629
  atomic energy  EATOM  =      7429.07371459
  Solvation  Ediel_sol  =         0.00000000
  ---------------------------------------------------
  free energy    TOTEN  =      -129.68882939 eV

  energy without entropy =     -129.67436638  energy(sigma->0) =     -129.68159788


--------------------------------------------------------------------------------------------------------




--------------------------------------- Iteration      1(   4)  ---------------------------------------


     EDDAV:  cpu time    0.9466: real time    0.9928
       DOS:  cpu time    0.0047: real time    0.0047
    --------------------------------------------
      LOOP:  cpu time    0.9513: real time    0.9976

 eigenvalue-minimisations  :  3864
 total energy-change (2. order) :-0.5666509E+01  (-0.5633196E+01)
 number of electron     108.0000000 magnetization      16.0000000
 augmentation part      108.0000000 magnetization      16.0000000

 Free energy of the ion-electron system (eV)
  ---------------------------------------------------
  alpha Z        PSCENC =       387.29729205
  Ewald energy   TEWEN  =     -5258.31042347
  -Hartree energ DENC   =     -2400.60883338
  -exchange      EXHF   =         0.00000000
  -V(xc)+E(xc)   XCENC  =       264.59050245
  PAW double counting   =      6362.12184073    -6222.39335305
  entropy T*S    EENTRO =        -0.01676525
  eigenvalues    EBANDS =      -697.10931289
  atomic energy  EATOM  =      7429.07371459
  Solvation  Ediel_sol  =         0.00000000
  ---------------------------------------------------
  free energy    TOTEN  =      -135.35533823 eV

  energy without entropy =     -135.33857298  energy(sigma->0) =     -135.34695560


--------------------------------------------------------------------------------------------------------




--------------------------------------- Iteration      1(   5)  ---------------------------------------


     EDDAV:  cpu time    1.0351: real time    1.0846
       DOS:  cpu time    0.0078: real time    0.0078
    CHARGE:  cpu time    0.1656: real time    0.1717
    MIXING:  cpu time    0.0110: real time    0.0149
    --------------------------------------------
      LOOP:  cpu time    1.2195: real time    1.2790

 eigenvalue-minimisations  :  4248
 total energy-change (2. order) :-0.1509900E+00  (-0.1509091E+00)
 number of electron     108.0000023 magnetization      14.7255770
 augmentation part       15.9581782 magnetization      12.8993450

 Broyden mixing:
  rms(total) = 0.10290E+02    rms(broyden)= 0.10290E+02
  rms(prec ) = 0.11391E+02
  weight for this iteration     100.00

 Free energy of the ion-electron system (eV)
  ---------------------------------------------------
  alpha Z        PSCENC =       387.29729205
  Ewald energy   TEWEN  =     -5258.31042347
  -Hartree energ DENC   =     -2400.60883338
  -exchange      EXHF   =         0.00000000
  -V(xc)+E(xc)   XCENC  =       264.59050245
  PAW double counting   =      6362.12184073    -6222.39335305
  entropy T*S    EENTRO =        -0.01699798
  eigenvalues    EBANDS =      -697.26007015
  atomic energy  EATOM  =      7429.07371459
  Solvation  Ediel_sol  =         0.00000000
  ---------------------------------------------------
  free energy    TOTEN  =      -135.50632822 eV

  energy without entropy =     -135.48933024  energy(sigma->0) =     -135.49782923


--------------------------------------------------------------------------------------------------------




--------------------------------------- Iteration      1(   6)  ---------------------------------------


    POTLOK:  cpu time    0.0777: real time    0.1243
    SETDIJ:  cpu time    2.6572: real time    2.6573
    EDDIAG:  cpu time    0.2474: real time    0.2575
  RMM-DIIS:  cpu time    0.3751: real time    0.3826
    ORTHCH:  cpu time    0.0155: real time    0.0155
       DOS:  cpu time    0.0044: real time    0.0044
    CHARGE:  cpu time    0.1614: real time    0.1614
    MIXING:  cpu time    0.0106: real time    0.0149
    --------------------------------------------
      LOOP:  cpu time    3.5495: real time    3.6180

 eigenvalue-minimisations  :  3510
 total energy-change (2. order) : 0.3653441E+02  (-0.4745868E+01)
 number of electron     108.0000020 magnetization      12.9857707
 augmentation part       16.8560308 magnetization      10.4057055

 Broyden mixing:
  rms(total) = 0.55673E+01    rms(broyden)= 0.55672E+01
  rms(prec ) = 0.57326E+01
  weight for this iteration     100.00

 eigenvalues of (default mixing * dielectric matrix)
  average eigenvalue GAMMA=   1.8128
  1.8128

 Free energy of the ion-electron system (eV)
  ---------------------------------------------------
  alpha Z        PSCENC =       387.29729205
  Ewald energy   TEWEN  =     -5258.31042347
  -Hartree energ DENC   =     -2433.91379784
  -exchange      EXHF   =         0.00000000
  -V(xc)+E(xc)   XCENC  =       271.21089231
  PAW double counting   =      7096.70431883    -6963.57819444
  entropy T*S    EENTRO =        -0.02516665
  eigenvalues    EBANDS =      -627.43055540
  atomic energy  EATOM  =      7429.07371459
  Solvation  Ediel_sol  =         0.00000000
  ---------------------------------------------------
  free energy    TOTEN  =       -98.97192002 eV

  energy without entropy =      -98.94675338  energy(sigma->0) =      -98.95933670


--------------------------------------------------------------------------------------------------------




--------------------------------------- Iteration      1(   7)  ---------------------------------------


    POTLOK:  cpu time    0.0775: real time    0.1236
    SETDIJ:  cpu time    2.6562: real time    2.6563
    EDDIAG:  cpu time    0.2453: real time    0.2453
  RMM-DIIS:  cpu time    0.3603: real time    0.3603
    ORTHCH:  cpu time    0.0152: real time    0.0152
       DOS:  cpu time    0.0052: real time    0.0052
    CHARGE:  cpu time    0.1621: real time    0.1621
    MIXING:  cpu time    0.0125: real time    0.0144
    --------------------------------------------
      LOOP:  cpu time    3.5343: real time    3.5824

 eigenvalue-minimisations  :  3464
 total energy-change (2. order) :-0.2996558E+00  (-0.1525111E+01)
 number of electron     108.0000018 magnetization      13.5188202
 augmentation part       17.8948225 magnetization       9.4834347

 Broyden mixing:
  rms(total) = 0.47072E+01    rms(broyden)= 0.47071E+01
  rms(prec ) = 0.48451E+01
  weight for this iteration     100.00

 eigenvalues of (default mixing * dielectric matrix)
  average eigenvalue GAMMA=   1.1504
  1.6303  0.6705

 Free energy of the ion-electron system (eV)
  ---------------------------------------------------
  alpha Z        PSCENC =       387.29729205
  Ewald energy   TEWEN  =     -5258.31042347
  -Hartree energ DENC   =     -2445.02770184
  -exchange      EXHF   =         0.00000000
  -V(xc)+E(xc)   XCENC  =       273.71775530
  PAW double counting   =      8019.66681671    -7892.14368097
  entropy T*S    EENTRO =        -0.03679865
  eigenvalues    EBANDS =      -613.50854957
  atomic energy  EATOM  =      7429.07371459
  Solvation  Ediel_sol  =         0.00000000
  ---------------------------------------------------
  free energy    TOTEN  =       -99.27157585 eV

  energy without entropy =      -99.23477720  energy(sigma->0) =      -99.25317652


--------------------------------------------------------------------------------------------------------




--------------------------------------- Iteration      1(   8)  ---------------------------------------


    POTLOK:  cpu time    0.0779: real time    0.1242
    SETDIJ:  cpu time    2.6576: real time    2.6577
    EDDIAG:  cpu time    0.2451: real time    0.2451
  RMM-DIIS:  cpu time    0.3698: real time    0.3699
    ORTHCH:  cpu time    0.0154: real time    0.0154
       DOS:  cpu time    0.0091: real time    0.0091
    CHARGE:  cpu time    0.1633: real time    0.1633
    MIXING:  cpu time    0.0125: real time    0.0134
    --------------------------------------------
      LOOP:  cpu time    3.5507: real time    3.5980

 eigenvalue-minimisations  :  3537
 total energy-change (2. order) :-0.2373824E+01  (-0.2695951E+00)
 number of electron     108.0000019 magnetization      10.7388082
 augmentation part       18.1398849 magnetization       6.1752415

 Broyden mixing:
  rms(total) = 0.63682E+01    rms(broyden)= 0.63682E+01
  rms(prec ) = 0.66414E+01
  weight for this iteration     100.00

 eigenvalues of (default mixing * dielectric matrix)
  average eigenvalue GAMMA=   1.5318
  2.7868  0.9042  0.9042

 Free energy of the ion-electron system (eV)
  ---------------------------------------------------
  alpha Z        PSCENC =       387.29729205
  Ewald energy   TEWEN  =     -5258.31042347
  -Hartree energ DENC   =     -2447.66605527
  -exchange      EXHF   =         0.00000000
  -V(xc)+E(xc)   XCENC  =       274.38521312
  PAW double counting   =      7703.38120300    -7574.70905222
  entropy T*S    EENTRO =        -0.02943455
  eigenvalues    EBANDS =      -615.06785659
  atomic energy  EATOM  =      7429.07371459
  Solvation  Ediel_sol  =         0.00000000
  ---------------------------------------------------
  free energy    TOTEN  =      -101.64539935 eV

  energy without entropy =     -101.61596480  energy(sigma->0) =     -101.63068207


--------------------------------------------------------------------------------------------------------




--------------------------------------- Iteration      1(   9)  ---------------------------------------


    POTLOK:  cpu time    0.0824: real time    0.1351
    SETDIJ:  cpu time    2.6552: real time    2.6553
    EDDIAG:  cpu time    0.2462: real time    0.2462
  RMM-DIIS:  cpu time    0.3626: real time    0.3626
    ORTHCH:  cpu time    0.0153: real time    0.0153
       DOS:  cpu time    0.0078: real time    0.0078
    CHARGE:  cpu time    0.1618: real time    0.1618
    MIXING:  cpu time    0.0119: real time    0.0122
    --------------------------------------------
      LOOP:  cpu time    3.5433: real time    3.5964

 eigenvalue-minimisations  :  3466
 total energy-change (2. order) : 0.2547442E+01  (-0.3009934E+00)
 number of electron     108.0000017 magnetization       9.8173562
 augmentation part       17.3739913 magnetization       8.4274424

 Broyden mixing:
  rms(total) = 0.23482E+01    rms(broyden)= 0.23480E+01
  rms(prec ) = 0.24567E+01
  weight for this iteration     100.00

 eigenvalues of (default mixing * dielectric matrix)
  average eigenvalue GAMMA=   1.4705
  3.7990  1.0379  0.6390  0.4061

 Free energy of the ion-electron system (eV)
  ---------------------------------------------------
  alpha Z        PSCENC =       387.29729205
  Ewald energy   TEWEN  =     -5258.31042347
  -Hartree energ DENC   =     -2443.77466453
  -exchange      EXHF   =         0.00000000
  -V(xc)+E(xc)   XCENC  =       272.86623194
  PAW double counting   =      9205.07290663    -9082.23424797
  entropy T*S    EENTRO =        -0.02599320
  eigenvalues    EBANDS =      -609.06277370
  atomic energy  EATOM  =      7429.07371459
  Solvation  Ediel_sol  =         0.00000000
  ---------------------------------------------------
  free energy    TOTEN  =       -99.09795768 eV

  energy without entropy =      -99.07196448  energy(sigma->0) =      -99.08496108


--------------------------------------------------------------------------------------------------------




--------------------------------------- Iteration      1(  10)  ---------------------------------------


    POTLOK:  cpu time    0.0806: real time    0.1246
    SETDIJ:  cpu time    2.6558: real time    2.6559
    EDDIAG:  cpu time    0.2462: real time    0.2462
  RMM-DIIS:  cpu time    0.3641: real time    0.3641
    ORTHCH:  cpu time    0.0153: real time    0.0153
       DOS:  cpu time    0.0042: real time    0.0042
    CHARGE:  cpu time    0.1611: real time    0.1611
    MIXING:  cpu time    0.0091: real time    0.0091
    --------------------------------------------
      LOOP:  cpu time    3.5364: real time    3.5805

 eigenvalue-minimisations  :  3467
 total energy-change (2. order) : 0.1801913E-01  (-0.4562949E-01)
 number of electron     108.0000018 magnetization       7.8721056
 augmentation part       17.2344832 magnetization       6.6428752

 Broyden mixing:
  rms(total) = 0.17127E+01    rms(broyden)= 0.17127E+01
  rms(prec ) = 0.17776E+01
  weight for this iteration     100.00

 eigenvalues of (default mixing * dielectric matrix)
  average eigenvalue GAMMA=   1.7078
  5.3031  1.1353  0.7052  0.7052  0.6900

 Free energy of the ion-electron system (eV)
  ---------------------------------------------------
  alpha Z        PSCENC =       387.29729205
  Ewald energy   TEWEN  =     -5258.31042347
  -Hartree energ DENC   =     -2441.07277664
  -exchange      EXHF   =         0.00000000
  -V(xc)+E(xc)   XCENC  =       272.37328431
  PAW double counting   =      9632.28498742    -9511.07928025
  entropy T*S    EENTRO =        -0.02691949
  eigenvalues    EBANDS =      -609.61981706
  atomic energy  EATOM  =      7429.07371459
  Solvation  Ediel_sol  =         0.00000000
  ---------------------------------------------------
  free energy    TOTEN  =       -99.07993855 eV

  energy without entropy =      -99.05301906  energy(sigma->0) =      -99.06647880


--------------------------------------------------------------------------------------------------------




--------------------------------------- Iteration      1(  11)  ---------------------------------------


    POTLOK:  cpu time    0.0792: real time    0.1247
    SETDIJ:  cpu time    2.6565: real time    2.6566
    EDDIAG:  cpu time    0.2476: real time    0.2477
  RMM-DIIS:  cpu time    0.3698: real time    0.3698
    ORTHCH:  cpu time    0.0156: real time    0.0156
       DOS:  cpu time    0.0054: real time    0.0054
    CHARGE:  cpu time    0.1626: real time    0.1626
    MIXING:  cpu time    0.0092: real time    0.0092
    --------------------------------------------
      LOOP:  cpu time    3.5460: real time    3.5917

 eigenvalue-minimisations  :  3500
 total energy-change (2. order) :-0.5833337E+00  (-0.2684186E-01)
 number of electron     108.0000018 magnetization       7.1893840
 augmentation part       17.1856672 magnetization       6.4752975

 Broyden mixing:
  rms(total) = 0.13193E+01    rms(broyden)= 0.13193E+01
  rms(prec ) = 0.14189E+01
  weight for this iteration     100.00

 eigenvalues of (default mixing * dielectric matrix)
  average eigenvalue GAMMA=   1.6423
  5.3099  1.0841  1.0841  1.1421  0.6167  0.6167

 Free energy of the ion-electron system (eV)
  ---------------------------------------------------
  alpha Z        PSCENC =       387.29729205
  Ewald energy   TEWEN  =     -5258.31042347
  -Hartree energ DENC   =     -2437.51490813
  -exchange      EXHF   =         0.00000000
  -V(xc)+E(xc)   XCENC  =       271.91413641
  PAW double counting   =     10368.28984739   -10249.99071582
  entropy T*S    EENTRO =        -0.02104812
  eigenvalues    EBANDS =      -610.40116717
  atomic energy  EATOM  =      7429.07371459
  Solvation  Ediel_sol  =         0.00000000
  ---------------------------------------------------
  free energy    TOTEN  =       -99.66327228 eV

  energy without entropy =      -99.64222416  energy(sigma->0) =      -99.65274822


--------------------------------------------------------------------------------------------------------




--------------------------------------- Iteration      1(  12)  ---------------------------------------


    POTLOK:  cpu time    0.0811: real time    0.1256
    SETDIJ:  cpu time    2.6567: real time    2.6568
    EDDIAG:  cpu time    0.2461: real time    0.2461
  RMM-DIIS:  cpu time    0.3618: real time    0.3618
    ORTHCH:  cpu time    0.0151: real time    0.0151
       DOS:  cpu time    0.0060: real time    0.0060
    CHARGE:  cpu time    0.1610: real time    0.1610
    MIXING:  cpu time    0.0093: real time    0.0093
    --------------------------------------------
      LOOP:  cpu time    3.5369: real time    3.5815

 eigenvalue-minimisations  :  3473
 total energy-change (2. order) :-0.1096974E+00  (-0.2312859E-02)
 number of electron     108.0000018 magnetization       7.3347255
 augmentation part       17.1991895 magnetization       6.8287747

 Broyden mixing:
  rms(total) = 0.12680E+01    rms(broyden)= 0.12680E+01
  rms(prec ) = 0.13484E+01
  weight for this iteration     100.00

 eigenvalues of (default mixing * dielectric matrix)
  average eigenvalue GAMMA=   1.4245
  5.3422  1.0646  1.0646  1.1517  0.6228  0.6228  0.1027

 Free energy of the ion-electron system (eV)
  ---------------------------------------------------
  alpha Z        PSCENC =       387.29729205
  Ewald energy   TEWEN  =     -5258.31042347
  -Hartree energ DENC   =     -2436.32343751
  -exchange      EXHF   =         0.00000000
  -V(xc)+E(xc)   XCENC  =       271.77952496
  PAW double counting   =     10325.76806725   -10207.41902689
  entropy T*S    EENTRO =        -0.01373071
  eigenvalues    EBANDS =      -611.62494995
  atomic energy  EATOM  =      7429.07371459
  Solvation  Ediel_sol  =         0.00000000
  ---------------------------------------------------
  free energy    TOTEN  =       -99.77296968 eV

  energy without entropy =      -99.75923897  energy(sigma->0) =      -99.76610433


--------------------------------------------------------------------------------------------------------




--------------------------------------- Iteration      1(  13)  ---------------------------------------


    POTLOK:  cpu time    0.4295: real time   13.9095
    SETDIJ:  cpu time    2.6558: real time    2.6559
    EDDIAG:  cpu time    0.2456: real time    0.2456
  RMM-DIIS:  cpu time    0.3750: real time    0.3750
    ORTHCH:  cpu time    0.0153: real time    0.0153
       DOS:  cpu time    0.0049: real time    0.0049
    CHARGE:  cpu time    0.1631: real time    0.1631
    MIXING:  cpu time    0.0093: real time    0.0093
    --------------------------------------------
      LOOP:  cpu time    3.8985: real time   17.3786

 eigenvalue-minimisations  :  3540
 total energy-change (2. order) :-0.3094131E-02  (-0.7209170E-03)
 number of electron     108.0000018 magnetization       7.4696671
 augmentation part       17.1846733 magnetization       6.9195128

 Broyden mixing:
  rms(total) = 0.13122E+01    rms(broyden)= 0.13122E+01
  rms(prec ) = 0.14018E+01
  weight for this iteration     100.00

 eigenvalues of (default mixing * dielectric matrix)
  average eigenvalue GAMMA=   2.2439
  5.4602  4.0104  4.0104  1.1471  1.0169  0.9378  0.6843  0.6843

 Free energy of the ion-electron system (eV)
  ---------------------------------------------------
  alpha Z        PSCENC =       387.29729205
  Ewald energy   TEWEN  =     -5258.31042347
  -Hartree energ DENC   =     -2436.38817668
  -exchange      EXHF   =         0.00000000
  -V(xc)+E(xc)   XCENC  =       271.77762205
  PAW double counting   =     10393.29781133   -10275.15778090
  entropy T*S    EENTRO =        -0.01553997
  eigenvalues    EBANDS =      -611.35058281
  atomic energy  EATOM  =      7429.07371459
  Solvation  Ediel_sol  =         0.00000000
  ---------------------------------------------------
  free energy    TOTEN  =       -99.77606382 eV

  energy without entropy =      -99.76052384  energy(sigma->0) =      -99.76829383


--------------------------------------------------------------------------------------------------------




--------------------------------------- Iteration      1(  14)  ---------------------------------------


    POTLOK:  cpu time    0.0797: real time    0.1234
    SETDIJ:  cpu time    2.6556: real time    2.6557
    EDDIAG:  cpu time    0.2474: real time    0.2474
  RMM-DIIS:  cpu time    0.3567: real time    0.3567
    ORTHCH:  cpu time    0.0156: real time    0.0156
       DOS:  cpu time    0.0045: real time    0.0045
    CHARGE:  cpu time    0.1600: real time    0.1601
    MIXING:  cpu time    0.0095: real time    0.0095
    --------------------------------------------
      LOOP:  cpu time    3.5290: real time    3.5729

 eigenvalue-minimisations  :  3456
 total energy-change (2. order) : 0.9324923E-01  (-0.2954391E-02)
 number of electron     108.0000018 magnetization       6.4618356
 augmentation part       17.1940770 magnetization       5.8691777

 Broyden mixing:
  rms(total) = 0.12582E+01    rms(broyden)= 0.12582E+01
  rms(prec ) = 0.13336E+01
  weight for this iteration     100.00

 eigenvalues of (default mixing * dielectric matrix)
  average eigenvalue GAMMA=   2.5048
  6.0854  6.0854  5.3475  1.1205  1.1205  0.8923  0.6811  0.6811  0.5298

 Free energy of the ion-electron system (eV)
  ---------------------------------------------------
  alpha Z        PSCENC =       387.29729205
  Ewald energy   TEWEN  =     -5258.31042347
  -Hartree energ DENC   =     -2434.89763391
  -exchange      EXHF   =         0.00000000
  -V(xc)+E(xc)   XCENC  =       271.71825724
  PAW double counting   =     10445.80742713   -10327.85683708
  entropy T*S    EENTRO =        -0.01846410
  eigenvalues    EBANDS =      -612.49614702
  atomic energy  EATOM  =      7429.07371459
  Solvation  Ediel_sol  =         0.00000000
  ---------------------------------------------------
  free energy    TOTEN  =       -99.68281458 eV

  energy without entropy =      -99.66435049  energy(sigma->0) =      -99.67358253


--------------------------------------------------------------------------------------------------------




--------------------------------------- Iteration      1(  15)  ---------------------------------------


    POTLOK:  cpu time    0.0795: real time    0.1234
    SETDIJ:  cpu time    2.6550: real time    2.6551
    EDDIAG:  cpu time    0.2459: real time    0.2460
  RMM-DIIS:  cpu time    0.3600: real time    0.3600
    ORTHCH:  cpu time    0.0153: real time    0.0153
       DOS:  cpu time    0.0051: real time    0.0051
    CHARGE:  cpu time    0.1609: real time    0.1609
    MIXING:  cpu time    0.0096: real time    0.0096
    --------------------------------------------
      LOOP:  cpu time    3.5314: real time    3.5754

 eigenvalue-minimisations  :  3467
 total energy-change (2. order) :-0.1330386E+00  (-0.5881545E-02)
 number of electron     108.0000018 magnetization       1.0476674
 augmentation part       17.2487299 magnetization       0.5267137

 Broyden mixing:
  rms(total) = 0.11465E+01    rms(broyden)= 0.11465E+01
  rms(prec ) = 0.11910E+01
  weight for this iteration     100.00

 eigenvalues of (default mixing * dielectric matrix)
  average eigenvalue GAMMA=   2.4852
  5.7268  5.5334  5.5334  2.2574  1.3036  1.3036  0.6801  0.6801  0.9678  0.8657

 Free energy of the ion-electron system (eV)
  ---------------------------------------------------
  alpha Z        PSCENC =       387.29729205
  Ewald energy   TEWEN  =     -5258.31042347
  -Hartree energ DENC   =     -2433.17332225
  -exchange      EXHF   =         0.00000000
  -V(xc)+E(xc)   XCENC  =       271.58162460
  PAW double counting   =     10324.95490365   -10206.75131084
  entropy T*S    EENTRO =        -0.01511239
  eigenvalues    EBANDS =      -614.47321909
  atomic energy  EATOM  =      7429.07371459
  Solvation  Ediel_sol  =         0.00000000
  ---------------------------------------------------
  free energy    TOTEN  =       -99.81585316 eV

  energy without entropy =      -99.80074077  energy(sigma->0) =      -99.80829696


--------------------------------------------------------------------------------------------------------




--------------------------------------- Iteration      1(  16)  ---------------------------------------


    POTLOK:  cpu time    0.0789: real time    0.1243
    SETDIJ:  cpu time    2.6554: real time    2.6555
    EDDIAG:  cpu time    0.2465: real time    0.2465
  RMM-DIIS:  cpu time    0.3571: real time    0.3571
    ORTHCH:  cpu time    0.0152: real time    0.0152
       DOS:  cpu time    0.0047: real time    0.0047
    CHARGE:  cpu time    0.1613: real time    0.1613
    MIXING:  cpu time    0.0154: real time    0.0205
    --------------------------------------------
      LOOP:  cpu time    3.5345: real time    3.5852

 eigenvalue-minimisations  :  3457
 total energy-change (2. order) :-0.5429916E+00  (-0.4271052E-01)
 number of electron     108.0000019 magnetization       2.0929512
 augmentation part       17.2755034 magnetization       1.7179121

 Broyden mixing:
  rms(total) = 0.80827E+00    rms(broyden)= 0.80826E+00
  rms(prec ) = 0.81723E+00
  weight for this iteration     100.00

 eigenvalues of (default mixing * dielectric matrix)
  average eigenvalue GAMMA=   2.5764
  9.3978  4.9017  3.8047  3.8047  1.2840  1.2840  0.6795  0.6795  0.9094  0.9094
  0.6858

 Free energy of the ion-electron system (eV)
  ---------------------------------------------------
  alpha Z        PSCENC =       387.29729205
  Ewald energy   TEWEN  =     -5258.31042347
  -Hartree energ DENC   =     -2430.45603108
  -exchange      EXHF   =         0.00000000
  -V(xc)+E(xc)   XCENC  =       271.12316661
  PAW double counting   =     10026.14354981    -9907.49494972
  entropy T*S    EENTRO =        -0.02234205
  eigenvalues    EBANDS =      -617.71282148
  atomic energy  EATOM  =      7429.07371459
  Solvation  Ediel_sol  =         0.00000000
  ---------------------------------------------------
  free energy    TOTEN  =      -100.35884475 eV

  energy without entropy =     -100.33650270  energy(sigma->0) =     -100.34767373


--------------------------------------------------------------------------------------------------------




--------------------------------------- Iteration      1(  17)  ---------------------------------------


    POTLOK:  cpu time    0.0820: real time    0.1257
    SETDIJ:  cpu time    2.6561: real time    2.6562
    EDDIAG:  cpu time    0.2445: real time    0.2445
  RMM-DIIS:  cpu time    0.3630: real time    0.3630
    ORTHCH:  cpu time    0.0155: real time    0.0155
       DOS:  cpu time    0.0043: real time    0.0043
    CHARGE:  cpu time    0.1601: real time    0.1601
    MIXING:  cpu time    0.0129: real time    0.0134
    --------------------------------------------
      LOOP:  cpu time    3.5383: real time    3.5827

 eigenvalue-minimisations  :  3456
 total energy-change (2. order) :-0.5567976E-01  (-0.1447839E-01)
 number of electron     108.0000019 magnetization       1.2102053
 augmentation part       17.1525898 magnetization       0.7648186

 Broyden mixing:
  rms(total) = 0.91937E+00    rms(broyden)= 0.91937E+00
  rms(prec ) = 0.96147E+00
  weight for this iteration     100.00

 eigenvalues of (default mixing * dielectric matrix)
  average eigenvalue GAMMA=   2.4402
  9.8078  4.9641  3.7257  3.7257  1.3099  1.3099  0.9009  0.9009  0.6767  0.6767
  0.6420  0.6420

 Free energy of the ion-electron system (eV)
  ---------------------------------------------------
  alpha Z        PSCENC =       387.29729205
  Ewald energy   TEWEN  =     -5258.31042347
  -Hartree energ DENC   =     -2433.59202227
  -exchange      EXHF   =         0.00000000
  -V(xc)+E(xc)   XCENC  =       271.14083582
  PAW double counting   =     10245.25637655   -10127.15210615
  entropy T*S    EENTRO =        -0.01166108
  eigenvalues    EBANDS =      -614.11653055
  atomic energy  EATOM  =      7429.07371459
  Solvation  Ediel_sol  =         0.00000000
  ---------------------------------------------------
  free energy    TOTEN  =      -100.41452451 eV

  energy without entropy =     -100.40286343  energy(sigma->0) =     -100.40869397


--------------------------------------------------------------------------------------------------------




--------------------------------------- Iteration      1(  18)  ---------------------------------------


    POTLOK:  cpu time    0.0780: real time    0.1236
    SETDIJ:  cpu time    2.6544: real time    2.6545
    EDDIAG:  cpu time    0.2458: real time    0.2458
  RMM-DIIS:  cpu time    0.3606: real time    0.3607
    ORTHCH:  cpu time    0.0156: real time    0.0156
       DOS:  cpu time    0.0045: real time    0.0045
    CHARGE:  cpu time    0.1621: real time    0.1621
    MIXING:  cpu time    0.0132: real time    0.0138
    --------------------------------------------
      LOOP:  cpu time    3.5343: real time    3.5806

 eigenvalue-minimisations  :  3456
 total energy-change (2. order) : 0.1598055E-01  (-0.1915544E-02)
 number of electron     108.0000019 magnetization       0.7645618
 augmentation part       17.1858811 magnetization       0.3134942

 Broyden mixing:
  rms(total) = 0.57758E+00    rms(broyden)= 0.57758E+00
  rms(prec ) = 0.61163E+00
  weight for this iteration     100.00

 eigenvalues of (default mixing * dielectric matrix)
  average eigenvalue GAMMA=   2.5565
  9.0349  5.7513  4.5396  3.2947  3.2947  0.6797  0.6797  1.2262  1.1024  1.1024
  0.8992  0.8992  0.7309

 Free energy of the ion-electron system (eV)
  ---------------------------------------------------
  alpha Z        PSCENC =       387.29729205
  Ewald energy   TEWEN  =     -5258.31042347
  -Hartree energ DENC   =     -2432.34736559
  -exchange      EXHF   =         0.00000000
  -V(xc)+E(xc)   XCENC  =       271.09431987
  PAW double counting   =     10156.03393898   -10037.74219794
  entropy T*S    EENTRO =        -0.01297524
  eigenvalues    EBANDS =      -615.48484721
  atomic energy  EATOM  =      7429.07371459
  Solvation  Ediel_sol  =         0.00000000
  ---------------------------------------------------
  free energy    TOTEN  =      -100.39854396 eV

  energy without entropy =     -100.38556872  energy(sigma->0) =     -100.39205634


--------------------------------------------------------------------------------------------------------




--------------------------------------- Iteration      1(  19)  ---------------------------------------


    POTLOK:  cpu time    0.0780: real time    0.1246
    SETDIJ:  cpu time    2.6540: real time    2.6541
    EDDIAG:  cpu time    0.2452: real time    0.2452
  RMM-DIIS:  cpu time    0.3589: real time    0.3589
    ORTHCH:  cpu time    0.0154: real time    0.0154
       DOS:  cpu time    0.0051: real time    0.0051
    CHARGE:  cpu time    0.1606: real time    0.1607
    MIXING:  cpu time    0.0136: real time    0.0139
    --------------------------------------------
      LOOP:  cpu time    3.5308: real time    3.5779

 eigenvalue-minimisations  :  3475
 total energy-change (2. order) : 0.3149420E-01  (-0.8452587E-02)
 number of electron     108.0000019 magnetization       0.7480663
 augmentation part       17.2759948 magnetization       0.2605367

 Broyden mixing:
  rms(total) = 0.22813E+00    rms(broyden)= 0.22811E+00
  rms(prec ) = 0.23260E+00
  weight for this iteration     100.00

 eigenvalues of (default mixing * dielectric matrix)
  average eigenvalue GAMMA=   2.3967
  8.9506  6.0505  4.5965  3.2901  3.2901  0.6796  0.6796  1.2084  1.0910  1.0910
  0.9091  0.9091  0.7311  0.0777

 Free energy of the ion-electron system (eV)
  ---------------------------------------------------
  alpha Z        PSCENC =       387.29729205
  Ewald energy   TEWEN  =     -5258.31042347
  -Hartree energ DENC   =     -2430.88889369
  -exchange      EXHF   =         0.00000000
  -V(xc)+E(xc)   XCENC  =       271.14260985
  PAW double counting   =     10059.75224990    -9941.22014462
  entropy T*S    EENTRO =        -0.02018674
  eigenvalues    EBANDS =      -617.19326761
  atomic energy  EATOM  =      7429.07371459
  Solvation  Ediel_sol  =         0.00000000
  ---------------------------------------------------
  free energy    TOTEN  =      -100.36704976 eV

  energy without entropy =     -100.34686302  energy(sigma->0) =     -100.35695639


--------------------------------------------------------------------------------------------------------




--------------------------------------- Iteration      1(  20)  ---------------------------------------


    POTLOK:  cpu time    0.0778: real time    0.1276
    SETDIJ:  cpu time    2.6549: real time    2.6549
    EDDIAG:  cpu time    0.2453: real time    0.2453
  RMM-DIIS:  cpu time    0.3745: real time    0.3745
    ORTHCH:  cpu time    0.0155: real time    0.0155
       DOS:  cpu time    0.0043: real time    0.0043
    CHARGE:  cpu time    0.1593: real time    0.1593
    MIXING:  cpu time    0.0135: real time    0.0143
    --------------------------------------------
      LOOP:  cpu time    3.5451: real time    3.5957

 eigenvalue-minimisations  :  3577
 total energy-change (2. order) :-0.1221029E-02  (-0.5610197E-03)
 number of electron     108.0000019 magnetization       0.8823592
 augmentation part       17.2795702 magnetization       0.3958989

 Broyden mixing:
  rms(total) = 0.23353E+00    rms(broyden)= 0.23353E+00
  rms(prec ) = 0.23886E+00
  weight for this iteration     100.00

 eigenvalues of (default mixing * dielectric matrix)
  average eigenvalue GAMMA=   2.2880
  8.5671  6.2764  4.4397  3.3310  3.3310  0.6796  0.6796  1.2050  1.0423  1.0423
  0.9427  0.9427  0.7189  0.5822  0.5394

 Free energy of the ion-electron system (eV)
  ---------------------------------------------------
  alpha Z        PSCENC =       387.29729205
  Ewald energy   TEWEN  =     -5258.31042347
  -Hartree energ DENC   =     -2430.86678329
  -exchange      EXHF   =         0.00000000
  -V(xc)+E(xc)   XCENC  =       271.14664311
  PAW double counting   =     10056.41831423    -9937.87781873
  entropy T*S    EENTRO =        -0.02063787
  eigenvalues    EBANDS =      -617.22857141
  atomic energy  EATOM  =      7429.07371459
  Solvation  Ediel_sol  =         0.00000000
  ---------------------------------------------------
  free energy    TOTEN  =      -100.36827079 eV

  energy without entropy =     -100.34763292  energy(sigma->0) =     -100.35795186


--------------------------------------------------------------------------------------------------------




--------------------------------------- Iteration      1(  21)  ---------------------------------------


    POTLOK:  cpu time    0.0787: real time    0.1275
    SETDIJ:  cpu time    2.6535: real time    2.6536
    EDDIAG:  cpu time    0.2460: real time    0.2460
  RMM-DIIS:  cpu time    0.3679: real time    0.3679
    ORTHCH:  cpu time    0.0155: real time    0.0155
       DOS:  cpu time    0.0042: real time    0.0042
    CHARGE:  cpu time    0.1609: real time    0.1609
    MIXING:  cpu time    0.0143: real time    0.0164
    --------------------------------------------
      LOOP:  cpu time    3.5409: real time    3.5919

 eigenvalue-minimisations  :  3494
 total energy-change (2. order) :-0.2125909E-02  (-0.4099404E-03)
 number of electron     108.0000019 magnetization       0.5604070
 augmentation part       17.2870750 magnetization       0.0602658

 Broyden mixing:
  rms(total) = 0.26399E+00    rms(broyden)= 0.26398E+00
  rms(prec ) = 0.27472E+00
  weight for this iteration     100.00

 eigenvalues of (default mixing * dielectric matrix)
  average eigenvalue GAMMA=   2.4180
 10.1321  6.5070  4.8657  3.3906  3.3906  1.0591  1.0591  0.6796  0.6796  1.0952
  1.0952  1.1455  1.1455  0.7492  0.8309  0.8634

 Free energy of the ion-electron system (eV)
  ---------------------------------------------------
  alpha Z        PSCENC =       387.29729205
  Ewald energy   TEWEN  =     -5258.31042347
  -Hartree energ DENC   =     -2431.05655125
  -exchange      EXHF   =         0.00000000
  -V(xc)+E(xc)   XCENC  =       271.16962832
  PAW double counting   =     10051.94731386    -9933.36520630
  entropy T*S    EENTRO =        -0.02083528
  eigenvalues    EBANDS =      -617.10532921
  atomic energy  EATOM  =      7429.07371459
  Solvation  Ediel_sol  =         0.00000000
  ---------------------------------------------------
  free energy    TOTEN  =      -100.37039670 eV

  energy without entropy =     -100.34956142  energy(sigma->0) =     -100.35997906


--------------------------------------------------------------------------------------------------------




--------------------------------------- Iteration      1(  22)  ---------------------------------------


    POTLOK:  cpu time    0.0815: real time    0.1274
    SETDIJ:  cpu time    2.6544: real time    2.6544
    EDDIAG:  cpu time    0.2457: real time    0.2457
  RMM-DIIS:  cpu time    0.3561: real time    0.3561
    ORTHCH:  cpu time    0.0153: real time    0.0153
       DOS:  cpu time    0.0044: real time    0.0044
    CHARGE:  cpu time    0.1604: real time    0.1604
    MIXING:  cpu time    0.0141: real time    0.0160
    --------------------------------------------
      LOOP:  cpu time    3.5319: real time    3.5799

 eigenvalue-minimisations  :  3456
 total energy-change (2. order) : 0.8497989E-03  (-0.1255312E-02)
 number of electron     108.0000019 magnetization       0.6054967
 augmentation part       17.2806622 magnetization       0.1391825

 Broyden mixing:
  rms(total) = 0.17307E+00    rms(broyden)= 0.17306E+00
  rms(prec ) = 0.17556E+00
  weight for this iteration     100.00

 eigenvalues of (default mixing * dielectric matrix)
  average eigenvalue GAMMA=   2.4011
 10.7995  5.6775  5.6775  3.5025  3.5025  1.2028  1.2028  0.6796  0.6796  1.0652
  1.0652  1.1621  1.0532  1.0532  0.8798  0.8798  0.7360

 Free energy of the ion-electron system (eV)
  ---------------------------------------------------
  alpha Z        PSCENC =       387.29729205
  Ewald energy   TEWEN  =     -5258.31042347
  -Hartree energ DENC   =     -2431.11059096
  -exchange      EXHF   =         0.00000000
  -V(xc)+E(xc)   XCENC  =       271.17511795
  PAW double counting   =     10059.42497924    -9940.97599507
  entropy T*S    EENTRO =        -0.02092554
  eigenvalues    EBANDS =      -616.92271569
  atomic energy  EATOM  =      7429.07371459
  Solvation  Ediel_sol  =         0.00000000
  ---------------------------------------------------
  free energy    TOTEN  =      -100.36954690 eV

  energy without entropy =     -100.34862136  energy(sigma->0) =     -100.35908413


--------------------------------------------------------------------------------------------------------




--------------------------------------- Iteration      1(  23)  ---------------------------------------


    POTLOK:  cpu time    0.0786: real time    0.1263
    SETDIJ:  cpu time    2.6556: real time    2.6557
    EDDIAG:  cpu time    0.2455: real time    0.2455
  RMM-DIIS:  cpu time    0.3604: real time    0.3604
    ORTHCH:  cpu time    0.0151: real time    0.0151
       DOS:  cpu time    0.0048: real time    0.0048
    CHARGE:  cpu time    0.1609: real time    0.1609
    MIXING:  cpu time    0.0111: real time    0.0111
    --------------------------------------------
      LOOP:  cpu time    3.5320: real time    3.5799

 eigenvalue-minimisations  :  3463
 total energy-change (2. order) :-0.4776292E-02  (-0.9572508E-03)
 number of electron     108.0000019 magnetization       0.7605874
 augmentation part       17.2591322 magnetization       0.2780506

 Broyden mixing:
  rms(total) = 0.13699E+00    rms(broyden)= 0.13698E+00
  rms(prec ) = 0.14769E+00
  weight for this iteration     100.00

 eigenvalues of (default mixing * dielectric matrix)
  average eigenvalue GAMMA=   2.4267
 10.3669  6.0861  6.0861  3.5658  3.5658  1.8906  1.8906  1.0036  1.0036  1.3466
  0.6796  0.6796  1.0928  1.0928  0.9063  0.9063  0.7759  0.7417

 Free energy of the ion-electron system (eV)
  ---------------------------------------------------
  alpha Z        PSCENC =       387.29729205
  Ewald energy   TEWEN  =     -5258.31042347
  -Hartree energ DENC   =     -2431.97016127
  -exchange      EXHF   =         0.00000000
  -V(xc)+E(xc)   XCENC  =       271.20899344
  PAW double counting   =     10100.15004676    -9981.88883650
  entropy T*S    EENTRO =        -0.01727412
  eigenvalues    EBANDS =      -615.91767467
  atomic energy  EATOM  =      7429.07371459
  Solvation  Ediel_sol  =         0.00000000
  ---------------------------------------------------
  free energy    TOTEN  =      -100.37432319 eV

  energy without entropy =     -100.35704908  energy(sigma->0) =     -100.36568613


--------------------------------------------------------------------------------------------------------




--------------------------------------- Iteration      1(  24)  ---------------------------------------


    POTLOK:  cpu time    0.0773: real time    0.1259
    SETDIJ:  cpu time    2.6535: real time    2.6536
    EDDIAG:  cpu time    0.2448: real time    0.2448
  RMM-DIIS:  cpu time    0.3613: real time    0.3614
    ORTHCH:  cpu time    0.0155: real time    0.0155
       DOS:  cpu time    0.0049: real time    0.0049
    CHARGE:  cpu time    0.1600: real time    0.1600
    MIXING:  cpu time    0.0110: real time    0.0110
    --------------------------------------------
      LOOP:  cpu time    3.5284: real time    3.5770

 eigenvalue-minimisations  :  3464
 total energy-change (2. order) :-0.2817631E-02  (-0.1652062E-03)
 number of electron     108.0000019 magnetization       0.8661915
 augmentation part       17.2493789 magnetization       0.3703497

 Broyden mixing:
  rms(total) = 0.14701E+00    rms(broyden)= 0.14701E+00
  rms(prec ) = 0.16023E+00
  weight for this iteration     100.00

 eigenvalues of (default mixing * dielectric matrix)
  average eigenvalue GAMMA=   2.8243
 14.6035  9.0146  5.3749  3.5450  3.5450  4.2751  1.0487  1.0487  1.6046  1.6046
  0.6796  0.6796  1.2090  1.0475  1.0475  0.8917  0.8917  0.8109  0.7392

 Free energy of the ion-electron system (eV)
  ---------------------------------------------------
  alpha Z        PSCENC =       387.29729205
  Ewald energy   TEWEN  =     -5258.31042347
  -Hartree energ DENC   =     -2432.70492683
  -exchange      EXHF   =         0.00000000
  -V(xc)+E(xc)   XCENC  =       271.24317292
  PAW double counting   =     10117.49612224    -9999.28634765
  entropy T*S    EENTRO =        -0.01577983
  eigenvalues    EBANDS =      -615.16996484
  atomic energy  EATOM  =      7429.07371459
  Solvation  Ediel_sol  =         0.00000000
  ---------------------------------------------------
  free energy    TOTEN  =      -100.37714082 eV

  energy without entropy =     -100.36136100  energy(sigma->0) =     -100.36925091


--------------------------------------------------------------------------------------------------------




--------------------------------------- Iteration      1(  25)  ---------------------------------------


    POTLOK:  cpu time    8.8759: real time    8.9244
    SETDIJ:  cpu time    2.6519: real time    2.6519
    EDDIAG:  cpu time    0.2427: real time    0.2427
  RMM-DIIS:  cpu time    0.3560: real time    0.3560
    ORTHCH:  cpu time    0.0152: real time    0.0152
       DOS:  cpu time    0.0088: real time    0.0088
    CHARGE:  cpu time    0.1613: real time    0.1613
    MIXING:  cpu time    0.0146: real time    0.0149
    --------------------------------------------
      LOOP:  cpu time   12.3263: real time   12.3752

 eigenvalue-minimisations  :  3456
 total energy-change (2. order) : 0.3582146E-02  (-0.8497537E-03)
 number of electron     108.0000019 magnetization       0.8653243
 augmentation part       17.2611596 magnetization       0.3582325

 Broyden mixing:
  rms(total) = 0.10525E+00    rms(broyden)= 0.10525E+00
  rms(prec ) = 0.10793E+00
  weight for this iteration     100.00

 eigenvalues of (default mixing * dielectric matrix)
  average eigenvalue GAMMA=   2.7623
 13.6567 10.0949  5.5705  4.5118  3.5661  3.5661  2.0323  1.0479  1.0479  1.3321
  1.3321  0.6796  0.6796  1.0573  1.0573  0.8924  0.8924  0.7637  0.7532  0.7118

 Free energy of the ion-electron system (eV)
  ---------------------------------------------------
  alpha Z        PSCENC =       387.29729205
  Ewald energy   TEWEN  =     -5258.31042347
  -Hartree energ DENC   =     -2433.88387951
  -exchange      EXHF   =         0.00000000
  -V(xc)+E(xc)   XCENC  =       271.33209518
  PAW double counting   =     10088.06225905    -9969.68008541
  entropy T*S    EENTRO =        -0.01759063
[...]

 k-point    10 :       0.0000    0.5000    0.5000
  band No.  band energies     occupation 
      1     -17.8092      1.00000
      2     -17.8092      1.00000
      3     -17.8092      1.00000
      4     -17.8092      1.00000
      5     -16.6016      1.00000
      6     -16.6016      1.00000
      7     -16.6016      1.00000
      8     -16.6016      1.00000
      9     -16.3427      1.00000
     10     -16.3427      1.00000
     11     -16.3427      1.00000
     12     -16.3427      1.00000
     13      -5.5629      1.00000
     14      -5.5629      1.00000
     15      -5.5629      1.00000
     16      -5.5629      1.00000
     17      -5.1076      1.00000
     18      -5.1076      1.00000
     19      -5.1076      1.00000
     20      -5.1076      1.00000
     21      -3.9703      1.00000
     22      -3.9703      1.00000
     23      -3.9703      1.00000
     24      -3.9703      1.00000
     25      -3.5142      1.00000
     26      -3.5142      1.00000
     27      -3.5142      1.00000
     28      -3.5142      1.00000
     29      -3.1268      1.00000
     30      -3.1268      1.00000
     31      -3.1268      1.00000
     32      -3.1268      1.00000
     33      -2.5158      1.00000
     34      -2.5158      1.00000
     35      -2.5158      1.00000
     36      -2.5158      1.00000
     37      -1.2067      1.00000
     38      -1.2067      1.00000
     39      -1.2067      1.00000
     40      -1.2067      1.00000
     41      -1.1620      1.00000
     42      -1.1620      1.00000
     43      -1.1620      1.00000
     44      -1.1620      1.00000
     45       0.3471      1.00000
     46       0.3471      1.00000
     47       0.3471      1.00000
     48       0.3471      1.00000
     49       1.2466      1.00000
     50       1.2466      1.00000
     51       1.2466      1.00000
     52       1.2466      1.00000
     53       1.4364      1.00000
     54       1.4364      1.00000
     55       1.4364      1.00000
     56       1.4364      1.00000
     57       1.7745      0.70654
     58       1.7745      0.70654
     59       1.7745      0.70654
     60       1.7745      0.70654
     61       3.1073      0.00000
     62       3.1073      0.00000
     63       3.1073      0.00000
     64       3.1073      0.00000
     65       6.0532      0.00000
     66       6.0532      0.00000
     67       6.0532      0.00000
     68       6.0532      0.00000
     69       9.7883      0.00000
     70       9.7883      0.00000
     71       9.7883      0.00000
     72       9.7883      0.00000

 k-point    11 :       0.2000    0.5000    0.5000
  band No.  band energies     occupation 
      1     -17.4403      1.00000
      2     -17.4403      1.00000
      3     -17.4403      1.00000
      4     -17.4403      1.00000
      5     -16.5840      1.00000
      6     -16.5840      1.00000
      7     -16.5840      1.00000
      8     -16.5840      1.00000
      9     -16.3321      1.00000
     10     -16.3321      1.00000
     11     -16.3321      1.00000
     12     -16.3321      1.00000
     13      -5.5473      1.00000
     14      -5.5473      1.00000
     15      -5.5473      1.00000
     16      -5.5473      1.00000
     17      -5.3948      1.00000
     18      -5.3948      1.00000
     19      -5.3948      1.00000
     20      -5.3948      1.00000
     21      -4.7586      1.00000
     22      -4.7586      1.00000
     23      -4.7586      1.00000
     24      -4.7586      1.00000
     25      -3.9788      1.00000
     26      -3.9788      1.00000
     27      -3.9788      1.00000
     28      -3.9788      1.00000
     29      -3.9479      1.00000
     30      -3.9479      1.00000
     31      -3.9479      1.00000
     32      -3.9479      1.00000
     33      -3.8676      1.00000
     34      -3.8676      1.00000
     35      -3.8676      1.00000
     36      -3.8676      1.00000
     37      -0.3204      1.00000
     38      -0.3204      1.00000
     39      -0.3204      1.00000
     40      -0.3204      1.00000
     41      -0.2656      1.00000
     42      -0.2656      1.00000
     43      -0.2656      1.00000
     44      -0.2656      1.00000
     45       0.3672      1.00000
     46       0.3672      1.00000
     47       0.3672      1.00000
     48       0.3672      1.00000
     49       1.2833      1.00000
     50       1.2833      1.00000
     51       1.2833      1.00000
     52       1.2833      1.00000
     53       1.5956      1.00000
     54       1.5956      1.00000
     55       1.5956      1.00000
     56       1.5956      1.00000
     57       1.8122      0.30023
     58       1.8122      0.30023
     59       1.8122      0.30023
     60       1.8122      0.30023
     61       5.3415      0.00000
     62       5.3415      0.00000
     63       5.3415      0.00000
     64       5.3415      0.00000
     65       6.0407      0.00000
     66       6.0407      0.00000
     67       6.0407      0.00000
     68       6.0407      0.00000
     69      10.1854      0.00000
     70      10.1854      0.00000
     71      10.1854      0.00000
     72      10.1854      0.00000

 k-point    12 :       0.4000    0.5000    0.5000
  band No.  band energies     occupation 
      1     -16.7665      1.00000
      2     -16.7665      1.00000
      3     -16.7665      1.00000
      4     -16.7665      1.00000
      5     -16.5032      1.00000
      6     -16.5032      1.00000
      7     -16.5032      1.00000
      8     -16.5032      1.00000
      9     -16.3150      1.00000
     10     -16.3150      1.00000
     11     -16.3150      1.00000
     12     -16.3150      1.00000
     13      -7.4801      1.00000
     14      -7.4801      1.00000
     15      -7.4801      1.00000
     16      -7.4801      1.00000
     17      -5.5004      1.00000
     18      -5.5004      1.00000
     19      -5.5004      1.00000
     20      -5.5004      1.00000
     21      -4.9771      1.00000
     22      -4.9771      1.00000
     23      -4.9771      1.00000
     24      -4.9771      1.00000
     25      -4.7867      1.00000
     26      -4.7867      1.00000
     27      -4.7867      1.00000
     28      -4.7867      1.00000
     29      -4.7452      1.00000
     30      -4.7452      1.00000
     31      -4.7452      1.00000
     32      -4.7452      1.00000
     33      -3.9072      1.00000
     34      -3.9072      1.00000
     35      -3.9072      1.00000
     36      -3.9072      1.00000
     37      -0.0114      1.00000
     38      -0.0114      1.00000
     39      -0.0114      1.00000
     40      -0.0114      1.00000
     41       0.2666      1.00000
     42       0.2666      1.00000
     43       0.2666      1.00000
     44       0.2666      1.00000
     45       0.4026      1.00000
     46       0.4026      1.00000
     47       0.4026      1.00000
     48       0.4026      1.00000
     49       1.7670      0.77446
     50       1.7670      0.77446
     51       1.7670      0.77446
     52       1.7670      0.77446
     53       2.2219      0.00000
     54       2.2219      0.00000
     55       2.2219      0.00000
     56       2.2219      0.00000
     57       2.3368      0.00000
     58       2.3368      0.00000
     59       2.3368      0.00000
     60       2.3368      0.00000
     61       6.0071      0.00000
     62       6.0071      0.00000
     63       6.0071      0.00000
     64       6.0071      0.00000
     65       7.5250      0.00000
     66       7.5250      0.00000
     67       7.5250      0.00000
     68       7.5250      0.00000
     69      11.0565      0.00000
     70      11.0565      0.00000
     71      11.0565      0.00000
     72      11.0565      0.00000


--------------------------------------------------------------------------------------------------------


 soft charge-density along one line, spin component           1
         0         1         2         3         4         5         6         7         8         9
 total charge-density along one line
 
 soft charge-density along one line, spin component           2
         0         1         2         3         4         5         6         7         8         9
 total charge-density along one line
 
 pseudopotential strength for first ion, spin component:           1
 12.740 -15.546  -0.000  -0.000   0.000   0.000   0.000  -0.000
-15.546  18.993   0.000   0.000  -0.000  -0.000  -0.000   0.000
 -0.000   0.000  -9.132   0.000   0.000  11.092  -0.000  -0.000
 -0.000   0.000   0.000  -9.008   0.000  -0.000  10.929  -0.000
  0.000  -0.000   0.000   0.000  -9.000  -0.000  -0.000  10.917
  0.000  -0.000  11.092  -0.000  -0.000 -13.346   0.000   0.000
  0.000  -0.000  -0.000  10.929  -0.000   0.000 -13.132   0.000
 -0.000   0.000  -0.000  -0.000  10.917   0.000   0.000 -13.115
 pseudopotential strength for first ion, spin component:           2
 12.727 -15.528  -0.000  -0.000   0.000   0.000   0.000  -0.000
-15.528  18.970   0.000   0.000  -0.000  -0.000  -0.000   0.000
 -0.000   0.000  -9.129   0.000   0.000  11.088  -0.000  -0.000
 -0.000   0.000   0.000  -8.979   0.000  -0.000  10.889  -0.000
  0.000  -0.000   0.000   0.000  -8.992  -0.000  -0.000  10.906
  0.000  -0.000  11.088  -0.000  -0.000 -13.341   0.000   0.000
  0.000  -0.000  -0.000  10.889  -0.000   0.000 -13.075   0.000
 -0.000   0.000  -0.000  -0.000  10.906   0.000   0.000 -13.100
 total augmentation occupancy for first ion, spin component:           1
  2.495   0.305   0.000   0.000  -0.000   0.000   0.000  -0.000
  0.305   0.069   0.000   0.000  -0.000   0.000   0.000  -0.000
  0.000   0.000   2.132   0.000  -0.000   0.348   0.000  -0.000
  0.000   0.000   0.000   1.922   0.000   0.000   0.135   0.000
 -0.000  -0.000  -0.000   0.000   1.921  -0.000   0.000   0.138
  0.000   0.000   0.348   0.000  -0.000   0.064   0.000  -0.000
  0.000   0.000   0.000   0.135   0.000   0.000   0.018   0.000
 -0.000  -0.000  -0.000   0.000   0.138  -0.000   0.000   0.018
 total augmentation occupancy for first ion, spin component:           2
 -0.003  -0.001  -0.000   0.000  -0.000   0.000   0.000  -0.000
 -0.001   0.005  -0.000   0.000  -0.000   0.000   0.000   0.000
 -0.000  -0.000  -0.004   0.000   0.000  -0.000   0.000  -0.000
  0.000   0.000   0.000   0.022   0.000   0.000  -0.002   0.000
 -0.000  -0.000   0.000   0.000  -0.001  -0.000   0.000  -0.001
  0.000   0.000  -0.000   0.000  -0.000   0.000   0.000  -0.000
  0.000   0.000   0.000  -0.002   0.000   0.000  -0.000   0.000
 -0.000   0.000  -0.000   0.000  -0.001  -0.000   0.000  -0.000


------------------------ aborting loop because EDIFF is reached ----------------------------------------


 


 total charge     
 
# of ion       s       p       d       tot
------------------------------------------
    1        1.559   3.432   0.000   4.991
    2        1.559   3.432   0.000   4.991
    3        1.559   3.432   0.000   4.991
    4        1.559   3.432   0.000   4.991
    5        1.566   3.421   0.000   4.987
    6        1.566   3.421   0.000   4.987
    7        1.566   3.421   0.000   4.987
    8        1.566   3.421   0.000   4.987
    9        1.559   3.431   0.000   4.991
   10        1.559   3.431   0.000   4.991
   11        1.559   3.431   0.000   4.991
   12        1.559   3.431   0.000   4.991
   13        0.672   1.088   6.627   8.388
   14        0.672   1.088   6.627   8.388
   15        0.672   1.088   6.627   8.388
   16        0.672   1.088   6.627   8.388
--------------------------------------------------
tot         21.423  45.489  26.510  93.422
 


 magnetization (x)
 
# of ion       s       p       d       tot
------------------------------------------
    1        0.005   0.017   0.000   0.022
    2        0.005   0.017   0.000   0.022
    3        0.005   0.017   0.000   0.022
    4        0.005   0.017   0.000   0.022
    5        0.004  -0.004   0.000  -0.000
    6        0.004  -0.004   0.000  -0.000
    7        0.004  -0.004   0.000  -0.000
    8        0.004  -0.004   0.000  -0.000
    9        0.005   0.017   0.000   0.022
   10        0.005   0.017   0.000   0.022
   11        0.005   0.017   0.000   0.022
   12        0.005   0.017   0.000   0.022
   13        0.000  -0.000   0.161   0.161
   14        0.000  -0.000   0.161   0.161
   15        0.000  -0.000   0.161   0.161
   16        0.000  -0.000   0.161   0.161
--------------------------------------------------
tot          0.056   0.120   0.646   0.821
 
    CHARGE:  cpu time    0.1595: real time    0.1595
    FORLOC:  cpu time    0.0069: real time    0.0069
    FORNL :  cpu time    0.2849: real time    0.2849
    STRESS:  cpu time    0.8717: real time    0.8717
    FORCOR:  cpu time    0.0805: real time    0.0805
    FORHAR:  cpu time    0.0115: real time    0.0115
    MIXING:  cpu time    0.0087: real time    0.0087
    OFIELD:  cpu time    0.0001: real time    0.0001

  FORCE on cell =-STRESS in cart. coord.  units (eV):
  Direction    XX          YY          ZZ          XY          YZ          ZX
  --------------------------------------------------------------------------------------
  Alpha Z   387.29729   387.29729   387.29729
  Ewald   -1680.97554 -1788.54545 -1788.80625     0.00000    -0.00000     0.00000
  Hartree   832.40527   800.62433   800.51091    -0.00000    -0.00000    -0.00000
  E(xc)    -521.46826  -521.65354  -521.65277    -0.00000     0.00000     0.00000
  Local    -980.17759  -855.97641  -855.61553    -0.00000    -0.00000    -0.00000
  n-local  -279.93178  -279.80526  -279.81235    -0.00000     0.00000    -0.00000
  augment   228.74244   232.56512   232.57185     0.00000     0.00000    -0.00000
  Kinetic  2014.11371  2025.47511  2025.48729     0.00000    -0.00000    -0.00000
  Fock        0.00000     0.00000     0.00000     0.00000     0.00000     0.00000
  -------------------------------------------------------------------------------------
  Total       0.00554    -0.01882    -0.01956    -0.00000     0.00000     0.00000
  in kB       0.04060    -0.13779    -0.14323    -0.00000     0.00000     0.00000
  external pressure =       -0.08 kB  Pullay stress =        0.00 kB


 VOLUME and BASIS-vectors are now :
 -----------------------------------------------------------------------------
  energy-cutoff  :      600.00
  volume of cell :      218.81
      direct lattice vectors                 reciprocal lattice vectors
     3.767200000  0.000000000  0.000000000     0.265449140  0.000000000  0.000000000
     0.000000000  7.621140000  0.000000000     0.000000000  0.131213965  0.000000000
     0.000000000  0.000000000  7.621350000     0.000000000  0.000000000  0.131210350

  length of vectors
     3.767200000  7.621140000  7.621350000     0.265449140  0.131213965  0.131210350


 FORCES acting on ions
    electron-ion (+dipol)            ewald-force                    non-local-force                 convergence-correction
 -----------------------------------------------------------------------------------------------
   -.371E-01 0.563E-01 0.278E-07   0.622E-01 -.752E-01 -.411E-14   -.253E-01 0.166E-01 -.309E-26   -.170E-02 -.145E-03 -.122E-11
   0.371E-01 -.563E-01 -.278E-07   -.622E-01 0.752E-01 0.246E-13   0.253E-01 -.166E-01 0.388E-27   0.170E-02 0.145E-03 0.478E-11
   0.371E-01 0.563E-01 -.237E-07   -.622E-01 -.752E-01 -.422E-14   0.253E-01 0.166E-01 0.284E-26   0.170E-02 -.145E-03 -.736E-12
   -.371E-01 -.563E-01 0.237E-07   0.622E-01 0.752E-01 0.175E-13   -.253E-01 -.166E-01 0.577E-28   -.170E-02 0.145E-03 0.126E-11
   -.275E-04 -.555E-01 0.925E-08   0.221E-04 0.774E-01 -.386E-14   0.509E-05 -.210E-01 -.434E-26   -.499E-06 -.218E-02 -.115E-11
   0.275E-04 0.555E-01 -.926E-08   -.221E-04 -.774E-01 0.582E-15   -.509E-05 0.210E-01 0.241E-26   0.499E-06 0.218E-02 0.305E-11
   0.275E-04 -.555E-01 0.925E-08   -.221E-04 0.774E-01 -.326E-14   -.509E-05 -.210E-01 0.385E-27   0.499E-06 -.218E-02 0.961E-12
   -.275E-04 0.555E-01 -.926E-08   0.221E-04 -.774E-01 0.176E-13   0.509E-05 0.210E-01 0.270E-26   -.499E-06 0.218E-02 0.264E-11
   -.193E-13 -.349E-12 0.117E-12   0.138E-14 0.407E-13 -.107E-12   -.168E-24 -.142E-23 0.742E-23   0.873E-13 -.182E-12 0.146E-12
   -.194E-13 -.349E-12 0.428E-13   -.521E-15 -.518E-13 0.135E-12   -.101E-24 0.243E-24 -.786E-23   0.873E-13 0.132E-11 -.404E-12
   -.197E-13 -.179E-12 0.127E-12   -.553E-14 0.320E-13 -.284E-13   0.175E-25 -.249E-24 -.389E-23   0.820E-13 -.756E-12 0.101E-13
   -.197E-13 -.179E-12 0.340E-13   0.266E-14 -.421E-13 0.284E-13   0.184E-24 0.164E-23 0.348E-23   0.802E-13 0.731E-12 -.101E-11
   -.255E-04 -.280E-01 0.167E-08   0.244E-04 0.277E-01 -.276E-13   -.146E-05 0.582E-02 -.120E-27   0.155E-05 -.201E-02 -.273E-11
   0.255E-04 0.280E-01 -.167E-08   -.244E-04 -.277E-01 -.295E-13   0.146E-05 -.582E-02 -.218E-25   -.155E-05 0.201E-02 0.292E-11
   0.255E-04 -.280E-01 0.167E-08   -.244E-04 0.277E-01 -.361E-13   0.146E-05 0.582E-02 -.114E-25   -.155E-05 -.201E-02 -.164E-11
   -.255E-04 0.280E-01 -.167E-08   0.244E-04 -.277E-01 0.773E-14   -.146E-05 -.582E-02 -.104E-25   0.155E-05 0.201E-02 0.260E-11
 -----------------------------------------------------------------------------------------------
   0.279E-11 -.551E-11 -.157E-10   -.118E-13 0.142E-13 -.121E-13   0.347E-17 -.347E-17 -.892E-24   0.647E-12 0.240E-11 0.949E-11
 
 
 POSITION                                       TOTAL-FORCE (eV/Angst)
 -----------------------------------------------------------------------------------
      0.00053      1.90559      1.90534        -0.001975     -0.002457      0.000000
      3.76667      5.71555      5.71601         0.001975      0.002457     -0.000000
      3.76667      5.71616      1.90534         0.001975     -0.002457     -0.000000
      0.00053      1.90498      5.71601        -0.001975      0.002457      0.000000
      1.88360      0.00061      1.90534        -0.000001     -0.001220     -0.000000
      1.88360      7.62053      5.71601         0.000001      0.001220     -0.000000
      1.88360      3.81118      1.90534         0.000001     -0.001220     -0.000000
      1.88360      3.80996      5.71601        -0.000001      0.001220      0.000000
     -0.00000      0.00000     -0.00000         0.000000     -0.000000      0.000000
     -0.00000      0.00000      3.81067        -0.000000     -0.000000      0.000000
     -0.00000      3.81057      3.81067        -0.000000     -0.000000      0.000000
     -0.00000      3.81057     -0.00000         0.000000     -0.000000      0.000000
      0.00000      0.00015      1.90534        -0.000001      0.003580      0.000000
     -0.00000      7.62099      5.71601         0.000001     -0.003580      0.000000
     -0.00000      3.81072      1.90534         0.000001      0.003580      0.000000
      0.00000      3.81042      5.71601        -0.000001     -0.003580      0.000000
 -----------------------------------------------------------------------------------
    total drift:                                0.000000     -0.000000     -0.000000


--------------------------------------------------------------------------------------------------------



  FREE ENERGIE OF THE ION-ELECTRON SYSTEM (eV)
  ---------------------------------------------------
  free  energy   TOTEN  =      -100.37325426 eV

  energy  without entropy=     -100.35531912  energy(sigma->0) =     -100.36428669
 
 d Force =-0.5906947E-06[-0.242E-05, 0.124E-05]  d Energy =-0.1737629E-05 0.115E-05
 d Force = 0.1053212E-04[-0.253E-05, 0.236E-04]  d Ewald  = 0.5042115E-01-0.504E-01


--------------------------------------------------------------------------------------------------------


    POTLOK:  cpu time    2.7293: real time    2.7294


--------------------------------------------------------------------------------------------------------


 stress matrix after NEB project (eV)
      0.00554     -0.00000      0.00000
     -0.00000     -0.01882      0.00000
      0.00000      0.00000     -0.01956
  FORCES: max atom, RMS     0.003580    0.002462
  FORCE total and by dimension    0.009848    0.003580
  Stress total and by dimension    0.027704    0.019562
