    8    8  150    2
  0.5883863E+01  0.3610640E-09  0.3610640E-09  0.3610640E-09  0.5000000E-15
  1.000000000000000E-004
  CAR 
 unknown system                          
     54     63     48
