Automatically generated mesh
      63
Reciprocal lattice
    0.00000000000000    0.00000000000000    0.00000000000000             1
    0.20000000000000    0.00000000000000    0.00000000000000             2
    0.40000000000000    0.00000000000000    0.00000000000000             2
    0.00000000000000    0.20000000000000    0.00000000000000             2
    0.20000000000000    0.20000000000000    0.00000000000000             2
    0.40000000000000    0.20000000000000    0.00000000000000             2
   -0.40000000000000    0.20000000000000    0.00000000000000             2
   -0.20000000000000    0.20000000000000    0.00000000000000             2
    0.00000000000000    0.40000000000000    0.00000000000000             2
    0.20000000000000    0.40000000000000    0.00000000000000             2
    0.40000000000000    0.40000000000000    0.00000000000000             2
   -0.40000000000000    0.40000000000000    0.00000000000000             2
   -0.20000000000000    0.40000000000000    0.00000000000000             2
    0.00000000000000    0.00000000000000    0.20000000000000             2
    0.20000000000000    0.00000000000000    0.20000000000000             2
    0.40000000000000    0.00000000000000    0.20000000000000             2
   -0.40000000000000    0.00000000000000    0.20000000000000             2
   -0.20000000000000    0.00000000000000    0.20000000000000             2
    0.00000000000000    0.20000000000000    0.20000000000000             2
    0.20000000000000    0.20000000000000    0.20000000000000             2
    0.40000000000000    0.20000000000000    0.20000000000000             2
   -0.40000000000000    0.20000000000000    0.20000000000000             2
   -0.20000000000000    0.20000000000000    0.20000000000000             2
    0.00000000000000    0.40000000000000    0.20000000000000             2
    0.20000000000000    0.40000000000000    0.20000000000000             2
    0.40000000000000    0.40000000000000    0.20000000000000             2
   -0.40000000000000    0.40000000000000    0.20000000000000             2
   -0.20000000000000    0.40000000000000    0.20000000000000             2
    0.00000000000000   -0.40000000000000    0.20000000000000             2
    0.20000000000000   -0.40000000000000    0.20000000000000             2
    0.40000000000000   -0.40000000000000    0.20000000000000             2
   -0.40000000000000   -0.40000000000000    0.20000000000000             2
   -0.20000000000000   -0.40000000000000    0.20000000000000             2
    0.00000000000000   -0.20000000000000    0.20000000000000             2
    0.20000000000000   -0.20000000000000    0.20000000000000             2
    0.40000000000000   -0.20000000000000    0.20000000000000             2
   -0.40000000000000   -0.20000000000000    0.20000000000000             2
   -0.20000000000000   -0.20000000000000    0.20000000000000             2
    0.00000000000000    0.00000000000000    0.40000000000000             2
    0.20000000000000    0.00000000000000    0.40000000000000             2
    0.40000000000000    0.00000000000000    0.40000000000000             2
   -0.40000000000000    0.00000000000000    0.40000000000000             2
   -0.20000000000000    0.00000000000000    0.40000000000000             2
    0.00000000000000    0.20000000000000    0.40000000000000             2
    0.20000000000000    0.20000000000000    0.40000000000000             2
    0.40000000000000    0.20000000000000    0.40000000000000             2
   -0.40000000000000    0.20000000000000    0.40000000000000             2
   -0.20000000000000    0.20000000000000    0.40000000000000             2
    0.00000000000000    0.40000000000000    0.40000000000000             2
    0.20000000000000    0.40000000000000    0.40000000000000             2
    0.40000000000000    0.40000000000000    0.40000000000000             2
   -0.40000000000000    0.40000000000000    0.40000000000000             2
   -0.20000000000000    0.40000000000000    0.40000000000000             2
    0.00000000000000   -0.40000000000000    0.40000000000000             2
    0.20000000000000   -0.40000000000000    0.40000000000000             2
    0.40000000000000   -0.40000000000000    0.40000000000000             2
   -0.40000000000000   -0.40000000000000    0.40000000000000             2
   -0.20000000000000   -0.40000000000000    0.40000000000000             2
    0.00000000000000   -0.20000000000000    0.40000000000000             2
    0.20000000000000   -0.20000000000000    0.40000000000000             2
    0.40000000000000   -0.20000000000000    0.40000000000000             2
   -0.40000000000000   -0.20000000000000    0.40000000000000             2
   -0.20000000000000   -0.20000000000000    0.40000000000000             2
