       N       E                     dE             d eps       ncg     rms          rms(c)
DAV:   1     0.390413736301E+03    0.39041E+03   -0.33564E+04 12096   0.137E+03
DAV:   2    -0.234738564701E+02   -0.41389E+03   -0.38985E+03 14112   0.324E+02
DAV:   3    -0.352129344024E+02   -0.11739E+02   -0.11685E+02 16584   0.612E+01
DAV:   4    -0.352785132732E+02   -0.65579E-01   -0.65577E-01 15144   0.442E+00
DAV:   5    -0.352792679844E+02   -0.75471E-03   -0.75470E-03 16224   0.481E-01    0.106E+02
RMM:   6    -0.231559098155E+02    0.12123E+02   -0.10230E+01 12096   0.146E+01    0.785E+01
RMM:   7    -0.229659865266E+02    0.18992E+00   -0.30692E-01 12096   0.341E+00    0.591E+01
RMM:   8    -0.232382205889E+02   -0.27223E+00   -0.98954E-01 12096   0.635E+00    0.720E+00
RMM:   9    -0.232590492051E+02   -0.20829E-01   -0.16266E-01 12096   0.207E+00    0.551E+00
RMM:  10    -0.233380795613E+02   -0.79030E-01   -0.45604E-02 12096   0.106E+00    0.456E+00
RMM:  11    -0.233596286807E+02   -0.21549E-01   -0.18384E-02 12096   0.687E-01    0.320E+00
RMM:  12    -0.234260342594E+02   -0.66406E-01   -0.27416E-03 12096   0.325E-01    0.375E+00
RMM:  13    -0.234382640050E+02   -0.12230E-01   -0.29718E-04 12096   0.103E-01    0.403E+00
RMM:  14    -0.234319255447E+02    0.63385E-02   -0.45339E-05 11317   0.443E-02    0.393E+00
RMM:  15    -0.235110040999E+02   -0.79079E-01   -0.30411E-02 12096   0.821E-01    0.306E+00
RMM:  16    -0.235517735042E+02   -0.40769E-01   -0.45501E-02 12096   0.106E+00    0.195E+00
RMM:  17    -0.235462759544E+02    0.54975E-02   -0.44522E-03 12096   0.341E-01    0.151E+00
RMM:  18    -0.235456141470E+02    0.66181E-03   -0.13724E-02 12096   0.536E-01    0.138E+00
RMM:  19    -0.235461689349E+02   -0.55479E-03   -0.48407E-04 12095   0.143E-01    0.111E+00
RMM:  20    -0.235511881208E+02   -0.50192E-02   -0.57275E-03 12096   0.363E-01    0.118E+00
RMM:  21    -0.235513787120E+02   -0.19059E-03   -0.19250E-04 11431   0.101E-01    0.107E+00
RMM:  22    -0.235526400847E+02   -0.12614E-02   -0.76185E-04 12096   0.138E-01    0.100E+00
RMM:  23    -0.235526121634E+02    0.27921E-04   -0.22840E-05  8685   0.293E-02    0.982E-01
RMM:  24    -0.235532788418E+02   -0.66668E-03   -0.17795E-04 12074   0.632E-02    0.121E+00
RMM:  25    -0.235553911546E+02   -0.21123E-02   -0.38040E-03 12096   0.299E-01    0.123E+00
RMM:  26    -0.235553560381E+02    0.35117E-04   -0.81825E-04 12093   0.160E-01    0.124E+00
RMM:  27    -0.235556195196E+02   -0.26348E-03   -0.40933E-04 12096   0.100E-01    0.138E+00
RMM:  28    -0.235546245343E+02    0.99499E-03   -0.24214E-03 12096   0.239E-01    0.115E+00
RMM:  29    -0.235545127317E+02    0.11180E-03   -0.10239E-04 11570   0.680E-02    0.962E-01
RMM:  30    -0.235551490088E+02   -0.63628E-03   -0.25905E-04 12051   0.772E-02    0.992E-01
RMM:  31    -0.235552097985E+02   -0.60790E-04   -0.35528E-05 10107   0.357E-02    0.840E-01
RMM:  32    -0.235552620531E+02   -0.52255E-04   -0.15348E-05  6580   0.228E-02    0.801E-01
RMM:  33    -0.235552727034E+02   -0.10650E-04   -0.30687E-06  6432   0.103E-02    0.757E-01
RMM:  34    -0.235553128186E+02   -0.40115E-04   -0.75304E-06  6446   0.148E-02    0.656E-01
RMM:  35    -0.235553248472E+02   -0.12029E-04   -0.16679E-06  6411   0.763E-03    0.572E-01
RMM:  36    -0.235553740322E+02   -0.49185E-04   -0.19122E-05  7142   0.220E-02    0.507E-01
RMM:  37    -0.235553869290E+02   -0.12897E-04   -0.36276E-06  6413   0.114E-02    0.430E-01
RMM:  38    -0.235553989326E+02   -0.12004E-04   -0.32177E-06  6398   0.976E-03    0.410E-01
RMM:  39    -0.235554209626E+02   -0.22030E-04   -0.11973E-05  6445   0.173E-02    0.292E-01
RMM:  40    -0.235554304077E+02   -0.94451E-05   -0.39502E-06  6374   0.106E-02
   1 F= -.23555430E+02 E0= -.23552031E+02  d E =-.235554E+02  mag=    -0.0201
       N       E                     dE             d eps       ncg     rms          rms(c)
DAV:   1    -0.334616065492E+03   -0.31106E+03   -0.83477E+03 12096   0.327E+02    0.129E+03
RMM:   2    -0.201376758996E+03    0.13324E+03   -0.48075E+02 12822   0.942E+01    0.268E+02
RMM:   3    -0.135863216949E+03    0.65514E+02   -0.75545E+01 12901   0.523E+01    0.631E+01
RMM:   4    -0.588608641653E+02    0.77002E+02   -0.33075E+01 13277   0.357E+01    0.178E+02
RMM:   5    -0.600022378976E+02   -0.11414E+01   -0.13848E+01 13642   0.158E+01    0.270E+02
RMM:   6    -0.607922815256E+02   -0.79004E+00   -0.26143E+01 14344   0.218E+01    0.234E+02
RMM:   7    -0.579182350379E+02    0.28740E+01   -0.24534E+01 13894   0.222E+01    0.172E+02
RMM:   8    -0.313556850729E+02    0.26563E+02   -0.10048E+01 13576   0.230E+01    0.166E+02
RMM:   9    -0.222109315114E+02    0.91448E+01   -0.25949E+00 14820   0.648E+00    0.163E+02
RMM:  10    -0.157783906430E+02    0.64325E+01   -0.80587E-01 14178   0.396E+00    0.163E+02
RMM:  11    -0.293545629923E+02   -0.13576E+02   -0.23027E+00 14044   0.597E+00    0.168E+02
RMM:  12    -0.839460358561E+01    0.20960E+02   -0.12124E+01 13280   0.179E+01    0.131E+02
RMM:  13    -0.854464666121E+01   -0.15004E+00   -0.14376E+00 13524   0.733E+00    0.131E+02
RMM:  14    -0.774097202940E+01    0.80367E+00   -0.18525E-01 13230   0.233E+00    0.130E+02
RMM:  15    -0.725595598528E+01    0.48502E+00   -0.21263E-02 13619   0.953E-01    0.129E+02
RMM:  16    -0.733262127959E+01   -0.76665E-01   -0.33174E-03 13063   0.304E-01    0.130E+02
RMM:  17    -0.575078151676E+01    0.15818E+01   -0.27262E+00 12727   0.851E+00    0.106E+02
RMM:  18    -0.397348122272E+01    0.17773E+01   -0.51569E-01 13744   0.448E+00    0.981E+01
RMM:  19    -0.250707364283E+01    0.14664E+01   -0.22436E-01 13715   0.190E+00    0.837E+01
RMM:  20    -0.346417000436E+01   -0.95710E+00   -0.34785E-01 13411   0.352E+00    0.647E+01
RMM:  21    -0.369389530485E+01   -0.22973E+00   -0.98877E-02 13574   0.149E+00    0.632E+01
RMM:  22    -0.295856583500E+01    0.73533E+00   -0.26112E-02 12695   0.105E+00    0.623E+01
RMM:  23    -0.308816215926E+01   -0.12960E+00   -0.18782E-01 12990   0.235E+00    0.423E+01
RMM:  24    -0.265534274819E+01    0.43282E+00   -0.26504E-02 13311   0.117E+00    0.376E+01
RMM:  25    -0.143171421058E+01    0.12236E+01   -0.65878E-02 13489   0.102E+00    0.288E+01
RMM:  26    -0.106999108548E+01    0.36172E+00   -0.76668E-02 13920   0.142E+00    0.277E+01
RMM:  27    -0.105183377596E+01    0.18157E-01   -0.73514E-03 13539   0.512E-01    0.270E+01
RMM:  28    -0.108685380325E+01   -0.35020E-01   -0.35260E-03 12751   0.357E-01    0.261E+01
RMM:  29    -0.110638873844E+01   -0.19535E-01   -0.14567E-03 13373   0.194E-01    0.253E+01
RMM:  30    -0.116191024773E+01   -0.55522E-01   -0.14064E-03 12978   0.205E-01    0.254E+01
RMM:  31    -0.123297913944E+01   -0.71069E-01   -0.85528E-03 13203   0.376E-01    0.267E+01
RMM:  32    -0.125350069089E+01   -0.20522E-01   -0.47559E-03 12566   0.490E-01    0.248E+01
RMM:  33    -0.128251801117E+01   -0.29017E-01   -0.93526E-03 13381   0.386E-01    0.211E+01
RMM:  34    -0.110532465743E+01    0.17719E+00   -0.10233E-02 13745   0.550E-01    0.198E+01
RMM:  35    -0.113516463449E+01   -0.29840E-01   -0.43995E-03 13215   0.293E-01    0.182E+01
RMM:  36    -0.111781465094E+01    0.17350E-01   -0.19192E-02 13189   0.751E-01    0.155E+01
RMM:  37    -0.101134310769E+01    0.10647E+00   -0.23343E-03 13213   0.308E-01    0.148E+01
RMM:  38    -0.947946908016E+00    0.63396E-01   -0.25349E-03 13062   0.253E-01    0.140E+01
RMM:  39    -0.973156909521E+00   -0.25210E-01   -0.67133E-04 13302   0.149E-01    0.140E+01
RMM:  40    -0.965288204889E+00    0.78687E-02   -0.71015E-04 13178   0.115E-01    0.137E+01
RMM:  41    -0.854493407040E+00    0.11079E+00   -0.16832E-03 13674   0.173E-01    0.136E+01
RMM:  42    -0.818115098843E+00    0.36378E-01   -0.79314E-04 13122   0.152E-01    0.137E+01
RMM:  43    -0.733511902145E+00    0.84603E-01   -0.71766E-03 13314   0.328E-01    0.129E+01
RMM:  44    -0.674319308743E+00    0.59193E-01   -0.30420E-03 13164   0.348E-01    0.123E+01
RMM:  45    -0.674309468399E+00    0.98403E-05   -0.82273E-04 13138   0.160E-01    0.124E+01
RMM:  46    -0.658536374339E+00    0.15773E-01   -0.38991E-04 12826   0.121E-01    0.121E+01
RMM:  47    -0.676514845827E+00   -0.17978E-01   -0.53269E-03 13042   0.286E-01    0.116E+01
RMM:  48    -0.677445553089E+00   -0.93071E-03   -0.52891E-04 12591   0.208E-01    0.115E+01
RMM:  49    -0.708156499473E+00   -0.30711E-01   -0.75654E-04 13243   0.131E-01    0.118E+01
RMM:  50    -0.693899663152E+00    0.14257E-01   -0.39005E-04 13727   0.103E-01    0.115E+01
RMM:  51    -0.706130240643E+00   -0.12231E-01   -0.18707E-04 12661   0.815E-02    0.116E+01
RMM:  52    -0.588281555526E+00    0.11785E+00   -0.11462E-02 12757   0.512E-01    0.104E+01
RMM:  53    -0.582415758017E+00    0.58658E-02   -0.17236E-03 13596   0.271E-01    0.997E+00
RMM:  54    -0.571192398297E+00    0.11223E-01   -0.10388E-03 13150   0.146E-01    0.993E+00
RMM:  55    -0.575646002671E+00   -0.44536E-02   -0.58537E-04 13093   0.144E-01    0.973E+00
RMM:  56    -0.607981370722E+00   -0.32335E-01   -0.23873E-03 13078   0.249E-01    0.101E+01
RMM:  57    -0.925219024556E+00   -0.31724E+00   -0.52190E-01 12802   0.361E+00    0.102E+01
RMM:  58    -0.845518993469E+00    0.79700E-01   -0.44079E-02 12819   0.167E+00    0.105E+01
RMM:  59    -0.835060695667E+00    0.10458E-01   -0.14867E-02 13580   0.671E-01    0.107E+01
RMM:  60    -0.835617417767E+00   -0.55672E-03   -0.17239E-03 12915   0.271E-01    0.109E+01
RMM:  61    -0.879488953877E+00   -0.43872E-01   -0.48302E-03 13504   0.333E-01    0.109E+01
RMM:  62    -0.921179864900E+00   -0.41691E-01   -0.20083E-02 13637   0.592E-01    0.126E+01
RMM:  63    -0.932902894340E+00   -0.11723E-01   -0.35251E-03 12462   0.498E-01    0.126E+01
RMM:  64    -0.936150704010E+00   -0.32478E-02   -0.76566E-04 12833   0.173E-01    0.126E+01
RMM:  65    -0.967212699001E+00   -0.31062E-01   -0.38881E-03 13058   0.278E-01    0.125E+01
RMM:  66    -0.831298493780E+00    0.13591E+00   -0.56654E-03 14318   0.368E-01    0.108E+01
RMM:  67    -0.125092050653E+01   -0.41962E+00   -0.22366E-02 13145   0.640E-01    0.153E+01
RMM:  68    -0.128561512355E+01   -0.34695E-01   -0.81577E-03 12861   0.656E-01    0.157E+01
RMM:  69    -0.127816257477E+01    0.74525E-02   -0.24031E-03 12844   0.308E-01    0.157E+01
RMM:  70    -0.130781928851E+01   -0.29657E-01   -0.29590E-03 13458   0.286E-01    0.160E+01
RMM:  71    -0.131955660496E+01   -0.11737E-01   -0.17624E-03 13236   0.228E-01    0.161E+01
RMM:  72    -0.918653960217E+00    0.40090E+00   -0.42608E-02 12744   0.998E-01    0.128E+01
RMM:  73    -0.944774432657E+00   -0.26120E-01   -0.10464E-02 12577   0.820E-01    0.128E+01
RMM:  74    -0.131916572393E+01   -0.37439E+00   -0.18894E-02 13059   0.629E-01    0.160E+01
RMM:  75    -0.129180605271E+01    0.27360E-01   -0.20700E-03 12656   0.445E-01    0.159E+01
RMM:  76    -0.852551400575E+00    0.43925E+00   -0.62210E-02 13160   0.105E+00    0.119E+01
RMM:  77    -0.597821158003E+00    0.25473E+00   -0.72848E-02 14417   0.142E+00    0.810E+00
RMM:  78    -0.602915727266E+00   -0.50946E-02   -0.96172E-03 13037   0.544E-01    0.761E+00
RMM:  79    -0.632338114610E+00   -0.29422E-01   -0.32766E-02 13498   0.873E-01    0.824E+00
RMM:  80    -0.585890478446E+00    0.46448E-01   -0.97867E-02 13787   0.156E+00    0.969E+00
RMM:  81    -0.580091792991E+00    0.57987E-02   -0.15015E-02 12835   0.839E-01    0.992E+00
RMM:  82    -0.411785705708E+00    0.16831E+00   -0.54196E-02 13561   0.112E+00    0.104E+01
RMM:  83    -0.406717455850E+00    0.50682E-02   -0.68379E-03 12648   0.598E-01    0.101E+01
RMM:  84    -0.410726846166E+00   -0.40094E-02   -0.12501E-03 12662   0.235E-01    0.103E+01
RMM:  85    -0.434366904928E+00   -0.23640E-01   -0.20017E-02 13146   0.603E-01    0.993E+00
RMM:  86    -0.435319092881E+00   -0.95219E-03   -0.26038E-03 12928   0.455E-01    0.969E+00
RMM:  87    -0.422811929596E+00    0.12507E-01   -0.34087E-02 12844   0.768E-01    0.103E+01
RMM:  88    -0.400275688006E+00    0.22536E-01   -0.18601E-02 13939   0.787E-01    0.944E+00
RMM:  89    -0.390351739501E+00    0.99239E-02   -0.50295E-03 12940   0.390E-01    0.889E+00
RMM:  90    -0.387746219002E+00    0.26055E-02   -0.23278E-03 13601   0.288E-01    0.883E+00
RMM:  91    -0.389709455879E+00   -0.19632E-02   -0.26188E-04 12610   0.971E-02    0.882E+00
RMM:  92    -0.346606502057E+00    0.43103E-01   -0.18528E-01 12910   0.210E+00    0.474E+00
RMM:  93    -0.381692943524E+00   -0.35086E-01   -0.13460E-02 12711   0.910E-01    0.473E+00
RMM:  94    -0.371352317507E+00    0.10341E-01   -0.28927E-02 13258   0.851E-01    0.547E+00
RMM:  95    -0.376086115708E+00   -0.47338E-02   -0.35230E-03 12722   0.472E-01    0.533E+00
RMM:  96    -0.378354578922E+00   -0.22685E-02   -0.67905E-04 12601   0.162E-01    0.529E+00
RMM:  97    -0.360402387053E+00    0.17952E-01   -0.55450E-03 12605   0.331E-01    0.513E+00
RMM:  98    -0.336549038302E+00    0.23853E-01   -0.20966E-02 14375   0.682E-01    0.403E+00
RMM:  99    -0.361483615002E+00   -0.24935E-01   -0.79274E-03 12598   0.507E-01    0.390E+00
RMM: 100    -0.372245167898E+00   -0.10762E-01   -0.14559E-02 13775   0.615E-01    0.517E+00
RMM: 101    -0.370324145046E+00    0.19210E-02   -0.32629E-03 12857   0.373E-01    0.417E+00
RMM: 102    -0.373361086762E+00   -0.30369E-02   -0.92035E-03 13732   0.457E-01    0.336E+00
RMM: 103    -0.382142047049E+00   -0.87810E-02   -0.23420E-03 12559   0.328E-01    0.334E+00
RMM: 104    -0.383852090516E+00   -0.17100E-02   -0.35062E-03 13475   0.311E-01    0.353E+00
RMM: 105    -0.351881837759E+00    0.31970E-01   -0.30550E-02 12965   0.928E-01    0.465E+00
RMM: 106    -0.362162267414E+00   -0.10280E-01   -0.96938E-03 13031   0.673E-01    0.444E+00
RMM: 107    -0.363335306826E+00   -0.11730E-02   -0.38818E-03 12887   0.324E-01    0.439E+00
RMM: 108    -0.363079515071E+00    0.25579E-03   -0.15340E-03 12644   0.240E-01    0.445E+00
RMM: 109    -0.359645086888E+00    0.34344E-02   -0.65768E-04 12400   0.158E-01    0.443E+00
RMM: 110    -0.355341863582E+00    0.43032E-02   -0.62252E-04 13038   0.141E-01    0.438E+00
RMM: 111    -0.351750722338E+00    0.35911E-02   -0.23822E-03 13354   0.258E-01    0.395E+00
RMM: 112    -0.349711006038E+00    0.20397E-02   -0.20338E-03 13231   0.248E-01    0.416E+00
RMM: 113    -0.359412516888E+00   -0.97015E-02   -0.29106E-03 13514   0.280E-01    0.401E+00
RMM: 114    -0.349599227413E+00    0.98133E-02   -0.69498E-03 12789   0.443E-01    0.401E+00
RMM: 115    -0.357843194564E+00   -0.82440E-02   -0.97017E-03 13301   0.526E-01    0.408E+00
RMM: 116    -0.357051256750E+00    0.79194E-03   -0.16550E-03 12249   0.294E-01    0.409E+00
RMM: 117    -0.360293067648E+00   -0.32418E-02   -0.27347E-02 12665   0.887E-01    0.278E+00
RMM: 118    -0.370015338085E+00   -0.97223E-02   -0.12277E-02 13187   0.697E-01    0.289E+00
RMM: 119    -0.384812955345E+00   -0.14798E-01   -0.34637E-03 12707   0.368E-01    0.291E+00
RMM: 120    -0.382674336877E+00    0.21386E-02   -0.73672E-04 12630   0.183E-01    0.285E+00
RMM: 121    -0.386869902034E+00   -0.41956E-02   -0.11844E-02 13002   0.537E-01    0.301E+00
RMM: 122    -0.382968035764E+00    0.39019E-02   -0.47110E-03 13188   0.440E-01    0.314E+00
RMM: 123    -0.370238137457E+00    0.12730E-01   -0.48933E-03 12999   0.362E-01    0.316E+00
RMM: 124    -0.378821004395E+00   -0.85829E-02   -0.12710E-03 12415   0.261E-01    0.317E+00
RMM: 125    -0.381334953910E+00   -0.25139E-02   -0.57732E-04 12851   0.142E-01    0.321E+00
RMM: 126    -0.385759894421E+00   -0.44249E-02   -0.27723E-03 12650   0.253E-01    0.386E+00
RMM: 127    -0.391294564992E+00   -0.55347E-02   -0.68862E-03 14197   0.402E-01    0.410E+00
RMM: 128    -0.405267764379E+00   -0.13973E-01   -0.40865E-03 12896   0.375E-01    0.441E+00
RMM: 129    -0.407614679617E+00   -0.23469E-02   -0.23728E-03 13853   0.273E-01    0.451E+00
RMM: 130    -0.407321636416E+00    0.29304E-03   -0.52364E-04 12591   0.141E-01    0.461E+00
RMM: 131    -0.405955592686E+00    0.13660E-02   -0.16112E-02 13062   0.546E-01    0.430E+00
RMM: 132    -0.379719229411E+00    0.26236E-01   -0.11446E-02 13675   0.618E-01    0.393E+00
RMM: 133    -0.396941925938E+00   -0.17223E-01   -0.60205E-03 12915   0.408E-01    0.363E+00
RMM: 134    -0.400040495717E+00   -0.30986E-02   -0.89751E-04 12462   0.242E-01    0.363E+00
RMM: 135    -0.397063172708E+00    0.29773E-02   -0.19328E-03 12683   0.225E-01    0.375E+00
RMM: 136    -0.393471494714E+00    0.35917E-02   -0.27113E-03 13609   0.272E-01    0.358E+00
RMM: 137    -0.383968576048E+00    0.95029E-02   -0.13246E-02 13228   0.586E-01    0.330E+00
RMM: 138    -0.401847030217E+00   -0.17878E-01   -0.10925E-02 13357   0.573E-01    0.356E+00
RMM: 139    -0.402040978813E+00   -0.19395E-03   -0.46757E-03 13038   0.392E-01    0.381E+00
RMM: 140    -0.384591720634E+00    0.17449E-01   -0.31244E-03 13039   0.307E-01    0.353E+00
RMM: 141    -0.393141682631E+00   -0.85500E-02   -0.34644E-03 13032   0.323E-01    0.371E+00
RMM: 142    -0.388003743299E+00    0.51379E-02   -0.65128E-03 13852   0.417E-01    0.361E+00
RMM: 143    -0.390092683109E+00   -0.20889E-02   -0.73750E-03 13316   0.409E-01    0.330E+00
RMM: 144    -0.387610766868E+00    0.24819E-02   -0.10303E-02 13562   0.537E-01    0.338E+00
RMM: 145    -0.393440000597E+00   -0.58292E-02   -0.15493E-03 12390   0.275E-01    0.336E+00
RMM: 146    -0.390119641595E+00    0.33204E-02   -0.21271E-03 13292   0.219E-01    0.342E+00
RMM: 147    -0.379005550891E+00    0.11114E-01   -0.31870E-03 13497   0.310E-01    0.329E+00
RMM: 148    -0.383058218447E+00   -0.40527E-02   -0.79669E-04 12287   0.182E-01    0.328E+00
RMM: 149    -0.371410856872E+00    0.11647E-01   -0.13941E-03 13236   0.175E-01    0.320E+00
RMM: 150    -0.318874271939E+00    0.52537E-01   -0.56752E-02 12531   0.113E+00    0.281E+00
RMM: 151    -0.368756107961E+00   -0.49882E-01   -0.21894E-02 12368   0.115E+00    0.257E+00
RMM: 152    -0.358923968914E+00    0.98321E-02   -0.22741E-02 13138   0.789E-01    0.263E+00
RMM: 153    -0.368024945160E+00   -0.91010E-02   -0.43457E-03 12310   0.551E-01    0.260E+00
RMM: 154    -0.364175074317E+00    0.38499E-02   -0.13571E-03 12925   0.208E-01    0.248E+00
RMM: 155    -0.366869079559E+00   -0.26940E-02   -0.66155E-04 12765   0.147E-01    0.250E+00
RMM: 156    -0.367146431634E+00   -0.27735E-03   -0.61157E-04 13522   0.126E-01    0.240E+00
RMM: 157    -0.378612715154E+00   -0.11466E-01   -0.55967E-03 13036   0.359E-01    0.244E+00
RMM: 158    -0.369483877857E+00    0.91288E-02   -0.26211E-03 13058   0.324E-01    0.250E+00
RMM: 159    -0.384350970059E+00   -0.14867E-01   -0.22408E-03 13118   0.239E-01    0.258E+00
RMM: 160    -0.371195473726E+00    0.13155E-01   -0.15027E-03 13604   0.227E-01    0.251E+00
RMM: 161    -0.371552307609E+00   -0.35683E-03   -0.21683E-04 12337   0.100E-01    0.250E+00
RMM: 162    -0.361395448443E+00    0.10157E-01   -0.11681E-02 12385   0.495E-01    0.237E+00
RMM: 163    -0.373281171770E+00   -0.11886E-01   -0.30795E-03 13119   0.398E-01    0.231E+00
RMM: 164    -0.378197040323E+00   -0.49159E-02   -0.53487E-03 12597   0.341E-01    0.231E+00
RMM: 165    -0.380020844798E+00   -0.18238E-02   -0.14851E-03 12527   0.293E-01    0.231E+00
RMM: 166    -0.378497022052E+00    0.15238E-02   -0.57153E-03 12547   0.354E-01    0.254E+00
RMM: 167    -0.371543825205E+00    0.69532E-02   -0.20491E-02 13184   0.717E-01    0.244E+00
RMM: 168    -0.387569726109E+00   -0.16026E-01   -0.42948E-03 12241   0.474E-01    0.254E+00
RMM: 169    -0.386911301101E+00    0.65843E-03   -0.82393E-04 12447   0.182E-01    0.257E+00
RMM: 170    -0.387853341418E+00   -0.94204E-03   -0.14496E-03 13403   0.199E-01    0.251E+00
RMM: 171    -0.388149772189E+00   -0.29643E-03   -0.13500E-03 13250   0.204E-01    0.248E+00
RMM: 172    -0.393452972299E+00   -0.53032E-02   -0.57171E-03 12484   0.348E-01    0.234E+00
RMM: 173    -0.397968809669E+00   -0.45158E-02   -0.14388E-03 12773   0.277E-01    0.239E+00
RMM: 174    -0.399277851533E+00   -0.13090E-02   -0.98603E-04 12840   0.160E-01    0.265E+00
RMM: 175    -0.398810809502E+00    0.46704E-03   -0.36741E-04 12709   0.130E-01    0.264E+00
RMM: 176    -0.398550312649E+00    0.26050E-03   -0.34425E-04 12826   0.931E-02    0.258E+00
RMM: 177    -0.409500896776E+00   -0.10951E-01   -0.38722E-02 12211   0.872E-01    0.283E+00
RMM: 178    -0.418765379963E+00   -0.92645E-02   -0.96671E-03 13134   0.685E-01    0.257E+00
RMM: 179    -0.388361597578E+00    0.30404E-01   -0.92160E-03 12254   0.518E-01    0.266E+00
RMM: 180    -0.411768976758E+00   -0.23407E-01   -0.14363E-02 13846   0.608E-01    0.266E+00
RMM: 181    -0.427436394338E+00   -0.15667E-01   -0.97864E-03 13123   0.525E-01    0.236E+00
RMM: 182    -0.458780770864E+00   -0.31344E-01   -0.34757E-02 13431   0.839E-01    0.225E+00
RMM: 183    -0.461050763266E+00   -0.22700E-02   -0.60531E-03 12618   0.563E-01    0.199E+00
RMM: 184    -0.463617208479E+00   -0.25664E-02   -0.33055E-03 13146   0.296E-01    0.186E+00
RMM: 185    -0.462414354614E+00    0.12029E-02   -0.65593E-03 13390   0.398E-01    0.161E+00
RMM: 186    -0.462363618634E+00    0.50736E-04   -0.42472E-03 13291   0.347E-01    0.150E+00
RMM: 187    -0.455003595760E+00    0.73600E-02   -0.10948E-02 13290   0.476E-01    0.129E+00
RMM: 188    -0.458507827916E+00   -0.35042E-02   -0.39818E-03 13114   0.394E-01    0.115E+00
RMM: 189    -0.469684523174E+00   -0.11177E-01   -0.52068E-03 12945   0.355E-01    0.126E+00
RMM: 190    -0.473220852861E+00   -0.35363E-02   -0.41262E-03 13450   0.357E-01    0.135E+00
RMM: 191    -0.474213623627E+00   -0.99277E-03   -0.73669E-04 12508   0.176E-01    0.134E+00
RMM: 192    -0.471986474315E+00    0.22271E-02   -0.69503E-04 13005   0.134E-01    0.125E+00
RMM: 193    -0.473844055995E+00   -0.18576E-02   -0.10424E-03 13621   0.163E-01    0.131E+00
RMM: 194    -0.475838484858E+00   -0.19944E-02   -0.96164E-04 13086   0.158E-01    0.139E+00
RMM: 195    -0.475342181406E+00    0.49630E-03   -0.27072E-04 12759   0.102E-01    0.138E+00
RMM: 196    -0.472029276111E+00    0.33129E-02   -0.47237E-04 12650   0.116E-01    0.134E+00
RMM: 197    -0.474006706012E+00   -0.19774E-02   -0.36630E-03 12487   0.286E-01    0.130E+00
RMM: 198    -0.473802607603E+00    0.20410E-03   -0.24074E-03 13239   0.312E-01    0.130E+00
RMM: 199    -0.472569471461E+00    0.12331E-02   -0.14961E-03 12986   0.195E-01    0.144E+00
RMM: 200    -0.469701608073E+00    0.28679E-02   -0.11542E-03 13123   0.198E-01    0.136E+00
RMM: 201    -0.462709939864E+00    0.69917E-02   -0.75016E-03 12797   0.400E-01    0.168E+00
RMM: 202    -0.457325423447E+00    0.53845E-02   -0.87459E-03 13679   0.493E-01    0.152E+00
RMM: 203    -0.461930947074E+00   -0.46055E-02   -0.20946E-03 12594   0.298E-01    0.150E+00
RMM: 204    -0.462690270516E+00   -0.75932E-03   -0.20270E-03 13646   0.210E-01    0.149E+00
RMM: 205    -0.465924336178E+00   -0.32341E-02   -0.64736E-04 12249   0.166E-01    0.148E+00
RMM: 206    -0.468458414383E+00   -0.25341E-02   -0.34519E-03 12736   0.268E-01    0.168E+00
RMM: 207    -0.464567509174E+00    0.38909E-02   -0.58466E-03 13277   0.426E-01    0.149E+00
RMM: 208    -0.466437077716E+00   -0.18696E-02   -0.90731E-04 12547   0.226E-01    0.149E+00
RMM: 209    -0.471599345542E+00   -0.51623E-02   -0.65479E-04 13094   0.132E-01    0.146E+00
RMM: 210    -0.471752316476E+00   -0.15297E-03   -0.31572E-04 12852   0.102E-01    0.148E+00
RMM: 211    -0.470961962281E+00    0.79035E-03   -0.44530E-04 12812   0.104E-01    0.145E+00
RMM: 212    -0.474284219421E+00   -0.33223E-02   -0.60445E-04 13640   0.120E-01    0.141E+00
RMM: 213    -0.474603540539E+00   -0.31932E-03   -0.12681E-04 11873   0.775E-02    0.140E+00
RMM: 214    -0.481157135312E+00   -0.65536E-02   -0.22861E-03 12447   0.217E-01    0.135E+00
RMM: 215    -0.480330136050E+00    0.82700E-03   -0.34573E-04 12229   0.161E-01    0.136E+00
RMM: 216    -0.479564588357E+00    0.76555E-03   -0.23826E-04 12515   0.781E-02    0.137E+00
RMM: 217    -0.483736196703E+00   -0.41716E-02   -0.36374E-03 12743   0.293E-01    0.138E+00
RMM: 218    -0.484757598262E+00   -0.10214E-02   -0.24891E-03 13271   0.294E-01    0.143E+00
RMM: 219    -0.484047184242E+00    0.71041E-03   -0.29450E-04 12729   0.114E-01    0.144E+00
RMM: 220    -0.481828830525E+00    0.22184E-02   -0.23941E-04 12727   0.846E-02
   2 F= -.48182883E+00 E0= -.46990586E+00  d E =0.230736E+02  mag=     1.0158
       N       E                     dE             d eps       ncg     rms          rms(c)
DAV:   1    -0.202522687513E+03   -0.20204E+03   -0.38677E+03 12096   0.348E+02    0.124E+02
RMM:   2    -0.106782347583E+03    0.95740E+02   -0.91742E+01 12096   0.428E+01    0.698E+01
RMM:   3    -0.446534540880E+02    0.62129E+02   -0.16707E+02 12096   0.599E+01    0.284E+01
RMM:   4    -0.428698029800E+02    0.17837E+01   -0.12185E+01 12096   0.194E+01    0.294E+01
RMM:   5    -0.410818031336E+02    0.17880E+01   -0.13591E+00 12096   0.579E+00    0.232E+01
RMM:   6    -0.398696391991E+02    0.12122E+01   -0.38245E-01 12096   0.275E+00    0.183E+01
RMM:   7    -0.398067043672E+02    0.62935E-01   -0.35863E-01 12096   0.260E+00    0.101E+01
RMM:   8    -0.396835329639E+02    0.12317E+00   -0.26321E-01 12096   0.219E+00    0.651E+00
RMM:   9    -0.395098427318E+02    0.17369E+00   -0.18933E-01 12096   0.231E+00    0.492E+00
RMM:  10    -0.395004288634E+02    0.94139E-02   -0.78945E-02 12096   0.132E+00    0.406E+00
RMM:  11    -0.394947890606E+02    0.56398E-02   -0.11736E-02 12096   0.523E-01    0.315E+00
RMM:  12    -0.395205116440E+02   -0.25723E-01   -0.74583E-03 12096   0.375E-01    0.277E+00
RMM:  13    -0.395773216414E+02   -0.56810E-01   -0.75477E-03 12096   0.437E-01    0.271E+00
RMM:  14    -0.396711010531E+02   -0.93779E-01   -0.65872E-02 12096   0.132E+00    0.324E+00
RMM:  15    -0.396693258913E+02    0.17752E-02   -0.29366E-03 12096   0.349E-01    0.282E+00
RMM:  16    -0.396714800511E+02   -0.21542E-02   -0.79766E-04 12096   0.130E-01    0.241E+00
RMM:  17    -0.396818504232E+02   -0.10370E-01   -0.10115E-02 12096   0.480E-01    0.109E+00
RMM:  18    -0.396855671016E+02   -0.37167E-02   -0.10439E-03 12096   0.163E-01    0.979E-01
RMM:  19    -0.396916816520E+02   -0.61146E-02   -0.23873E-03 12096   0.242E-01    0.925E-01
RMM:  20    -0.396953342440E+02   -0.36526E-02   -0.28093E-03 12096   0.253E-01    0.558E-01
RMM:  21    -0.396976358674E+02   -0.23016E-02   -0.51296E-04 12096   0.121E-01    0.542E-01
RMM:  22    -0.396997920808E+02   -0.21562E-02   -0.13650E-03 12096   0.170E-01    0.471E-01
RMM:  23    -0.396997427144E+02    0.49366E-04   -0.71474E-05 11946   0.512E-02    0.381E-01
RMM:  24    -0.396993316425E+02    0.41107E-03   -0.22677E-05  8574   0.264E-02    0.391E-01
RMM:  25    -0.397015349131E+02   -0.22033E-02   -0.79105E-04 12096   0.131E-01    0.353E-01
RMM:  26    -0.397036919841E+02   -0.21571E-02   -0.12201E-03 12096   0.150E-01    0.300E-01
RMM:  27    -0.397046802545E+02   -0.98827E-03   -0.35261E-04 12053   0.865E-02    0.287E-01
RMM:  28    -0.397051067818E+02   -0.42653E-03   -0.11214E-04 11383   0.473E-02    0.281E-01
RMM:  29    -0.397052307577E+02   -0.12398E-03   -0.19289E-05  7858   0.238E-02    0.281E-01
RMM:  30    -0.397053625335E+02   -0.13178E-03   -0.10301E-05  6768   0.158E-02    0.281E-01
RMM:  31    -0.397048592548E+02    0.50328E-03   -0.14734E-04 12089   0.533E-02    0.294E-01
RMM:  32    -0.397048999815E+02   -0.40727E-04   -0.45110E-06  6732   0.154E-02    0.298E-01
RMM:  33    -0.397041866148E+02    0.71337E-03   -0.17933E-04 11936   0.554E-02    0.288E-01
RMM:  34    -0.397048177733E+02   -0.63116E-03   -0.18186E-04 12074   0.581E-02    0.255E-01
RMM:  35    -0.397050697259E+02   -0.25195E-03   -0.91715E-05 11999   0.422E-02    0.216E-01
RMM:  36    -0.397058812179E+02   -0.81149E-03   -0.88970E-04 12096   0.123E-01    0.258E-01
RMM:  37    -0.397060121059E+02   -0.13089E-03   -0.90211E-05 11660   0.496E-02    0.187E-01
RMM:  38    -0.397061356489E+02   -0.12354E-03   -0.49480E-05 10391   0.299E-02    0.192E-01
RMM:  39    -0.397060411551E+02    0.94494E-04   -0.14713E-04 12043   0.524E-02    0.139E-01
RMM:  40    -0.397061768474E+02   -0.13569E-03   -0.34702E-05  9464   0.275E-02    0.115E-01
RMM:  41    -0.397064727737E+02   -0.29593E-03   -0.33504E-04 12081   0.747E-02    0.112E-01
RMM:  42    -0.397065046171E+02   -0.31843E-04   -0.53667E-05 10553   0.368E-02    0.961E-02
RMM:  43    -0.397064974201E+02    0.71970E-05   -0.29195E-06  6620   0.110E-02
   3 F= -.39706497E+02 E0= -.39700003E+02  d E =-.161511E+02  mag=     0.3050
       N       E                     dE             d eps       ncg     rms          rms(c)
DAV:   1    -0.435331583779E+02   -0.38267E+01   -0.68912E+01 17136   0.506E+01    0.115E+01
RMM:   2    -0.422406815001E+02    0.12925E+01   -0.24078E+00 12096   0.601E+00    0.923E+00
RMM:   3    -0.416158284037E+02    0.62485E+00   -0.12005E+00 12096   0.498E+00    0.577E+00
RMM:   4    -0.411047889592E+02    0.51104E+00   -0.13211E+00 12096   0.609E+00    0.421E+00
RMM:   5    -0.410865415854E+02    0.18247E-01   -0.33016E-02 12096   0.986E-01    0.357E+00
RMM:   6    -0.410830314452E+02    0.35101E-02   -0.32890E-03 12096   0.278E-01    0.323E+00
RMM:   7    -0.411068389019E+02   -0.23807E-01   -0.12610E-01 12096   0.177E+00    0.162E+00
RMM:   8    -0.410833335951E+02    0.23505E-01   -0.12541E-02 12096   0.493E-01    0.923E-01
RMM:   9    -0.410743462029E+02    0.89874E-02   -0.13853E-02 12096   0.542E-01    0.442E-01
RMM:  10    -0.410731416194E+02    0.12046E-02   -0.32424E-03 12096   0.291E-01    0.281E-01
RMM:  11    -0.410733940471E+02   -0.25243E-03   -0.31630E-04 12096   0.853E-02    0.259E-01
RMM:  12    -0.410735364229E+02   -0.14238E-03   -0.49118E-05 11403   0.367E-02    0.228E-01
RMM:  13    -0.410737603002E+02   -0.22388E-03   -0.29206E-05  9527   0.277E-02    0.220E-01
RMM:  14    -0.410740771654E+02   -0.31687E-03   -0.73109E-05 11985   0.403E-02    0.223E-01
RMM:  15    -0.410743101977E+02   -0.23303E-03   -0.46728E-05 11011   0.331E-02    0.203E-01
RMM:  16    -0.410744958518E+02   -0.18565E-03   -0.88140E-05 11521   0.422E-02    0.184E-01
RMM:  17    -0.410747848146E+02   -0.28896E-03   -0.93357E-05 11571   0.443E-02    0.189E-01
RMM:  18    -0.410749119397E+02   -0.12713E-03   -0.18308E-05  7666   0.223E-02    0.187E-01
RMM:  19    -0.410754521452E+02   -0.54021E-03   -0.21159E-04 12096   0.635E-02    0.180E-01
RMM:  20    -0.410757770062E+02   -0.32486E-03   -0.18870E-04 12041   0.599E-02    0.138E-01
RMM:  21    -0.410755313952E+02    0.24561E-03   -0.10391E-04 11799   0.501E-02    0.183E-01
RMM:  22    -0.410753661973E+02    0.16520E-03   -0.36908E-05  9262   0.278E-02    0.188E-01
RMM:  23    -0.410754103613E+02   -0.44164E-04   -0.16175E-06  6532   0.909E-03    0.184E-01
RMM:  24    -0.410753925828E+02    0.17779E-04   -0.23524E-05  7803   0.231E-02    0.194E-01
RMM:  25    -0.410753900255E+02    0.25573E-05   -0.45985E-05 10180   0.320E-02
   4 F= -.41075390E+02 E0= -.41066893E+02  d E =-.175200E+02  mag=     0.6300
       N       E                     dE             d eps       ncg     rms          rms(c)
DAV:   1    -0.432525609946E+02   -0.21772E+01   -0.50618E+01 13920   0.437E+01    0.105E+01
RMM:   2    -0.422558555069E+02    0.99671E+00   -0.10630E+00 12096   0.474E+00    0.874E+00
RMM:   3    -0.417967153900E+02    0.45914E+00   -0.78270E-01 12096   0.404E+00    0.506E+00
RMM:   4    -0.415814205719E+02    0.21529E+00   -0.78916E-01 12096   0.483E+00    0.760E+00
RMM:   5    -0.414497561726E+02    0.13166E+00   -0.52574E-02 12096   0.120E+00    0.328E+00
RMM:   6    -0.414465564415E+02    0.31997E-02   -0.66555E-03 12096   0.408E-01    0.246E+00
RMM:   7    -0.414441751800E+02    0.23813E-02   -0.22063E-02 12096   0.789E-01    0.840E-01
RMM:   8    -0.414387310239E+02    0.54442E-02   -0.70370E-03 12096   0.394E-01    0.474E-01
RMM:   9    -0.414383859506E+02    0.34507E-03   -0.10456E-03 12096   0.166E-01    0.369E-01
RMM:  10    -0.414384760537E+02   -0.90103E-04   -0.13345E-04 12054   0.533E-02    0.332E-01
RMM:  11    -0.414387062960E+02   -0.23024E-03   -0.51720E-05 11191   0.363E-02    0.280E-01
RMM:  12    -0.414393938831E+02   -0.68759E-03   -0.28676E-04 12096   0.840E-02    0.213E-01
RMM:  13    -0.414398762319E+02   -0.48235E-03   -0.27754E-04 12096   0.775E-02    0.159E-01
RMM:  14    -0.414399271965E+02   -0.50965E-04   -0.33863E-05  9514   0.307E-02    0.137E-01
RMM:  15    -0.414400859427E+02   -0.15875E-03   -0.89105E-05 11862   0.438E-02    0.986E-02
RMM:  16    -0.414401391194E+02   -0.53177E-04   -0.35217E-05  9485   0.295E-02    0.768E-02
RMM:  17    -0.414401686529E+02   -0.29533E-04   -0.20380E-05  7740   0.211E-02    0.620E-02
RMM:  18    -0.414401959395E+02   -0.27287E-04   -0.15428E-05  7726   0.202E-02    0.473E-02
RMM:  19    -0.414402030814E+02   -0.71419E-05   -0.61622E-06  6579   0.147E-02
   5 F= -.41440203E+02 E0= -.41433150E+02  d E =-.178848E+02  mag=     0.7442
       N       E                     dE             d eps       ncg     rms          rms(c)
DAV:   1    -0.414538665169E+02   -0.13671E-01   -0.32423E-01 16656   0.349E+00    0.858E-01
RMM:   2    -0.414473790968E+02    0.64874E-02   -0.62409E-03 12096   0.385E-01    0.669E-01
RMM:   3    -0.414432825040E+02    0.40966E-02   -0.86358E-03 12096   0.444E-01    0.329E-01
RMM:   4    -0.414425692790E+02    0.71323E-03   -0.19910E-03 12096   0.255E-01    0.337E-01
RMM:   5    -0.414424732318E+02    0.96047E-04   -0.13531E-04 12075   0.547E-02    0.284E-01
RMM:   6    -0.414424040205E+02    0.69211E-04   -0.65621E-05 11434   0.420E-02    0.126E-01
RMM:   7    -0.414423818271E+02    0.22193E-04   -0.92057E-06  7422   0.150E-02    0.730E-02
RMM:   8    -0.414423734110E+02    0.84161E-05   -0.11434E-05  6871   0.164E-02
   6 F= -.41442373E+02 E0= -.41435457E+02  d E =-.178869E+02  mag=     0.7379
       N       E                     dE             d eps       ncg     rms          rms(c)
DAV:   1    -0.414427773448E+02   -0.39552E-03   -0.82708E-03 18048   0.551E-01    0.145E-01
RMM:   2    -0.414426119454E+02    0.16540E-03   -0.15696E-04 12094   0.608E-02    0.115E-01
RMM:   3    -0.414425095450E+02    0.10240E-03   -0.24816E-04 12095   0.762E-02    0.640E-02
RMM:   4    -0.414424902465E+02    0.19298E-04   -0.45677E-05 11236   0.381E-02    0.546E-02
RMM:   5    -0.414424897107E+02    0.53580E-06   -0.28505E-06  6442   0.906E-03
   7 F= -.41442490E+02 E0= -.41435567E+02  d E =-.178871E+02  mag=     0.7363
       N       E                     dE             d eps       ncg     rms          rms(c)
DAV:   1    -0.414425005013E+02   -0.10255E-04   -0.20976E-04 17328   0.873E-02    0.420E-02
RMM:   2    -0.414425001797E+02    0.32155E-06   -0.64834E-06  6351   0.117E-02
   8 F= -.41442500E+02 E0= -.41435559E+02  d E =-.178871E+02  mag=     0.7362
       N       E                     dE             d eps       ncg     rms          rms(c)
DAV:   1    -0.414440424703E+02   -0.15420E-02   -0.54648E-02 14568   0.143E+00    0.373E-01
RMM:   2    -0.414428402069E+02    0.12023E-02   -0.10179E-03 12096   0.160E-01    0.294E-01
RMM:   3    -0.414421005614E+02    0.73965E-03   -0.16038E-03 12096   0.191E-01    0.150E-01
RMM:   4    -0.414419640150E+02    0.13655E-03   -0.37307E-04 12095   0.110E-01    0.146E-01
RMM:   5    -0.414419451980E+02    0.18817E-04   -0.21886E-05  8840   0.238E-02    0.121E-01
RMM:   6    -0.414419366880E+02    0.85100E-05   -0.15370E-05  7622   0.251E-02
   9 F= -.41441937E+02 E0= -.41434949E+02  d E =-.178865E+02  mag=     0.7369
       N       E                     dE             d eps       ncg     rms          rms(c)
DAV:   1    -0.414437522641E+02   -0.18071E-02   -0.37894E-02 14304   0.119E+00    0.284E-01
RMM:   2    -0.414430388217E+02    0.71344E-03   -0.65712E-04 12096   0.129E-01    0.220E-01
RMM:   3    -0.414427179981E+02    0.32082E-03   -0.61999E-04 12096   0.118E-01    0.173E-01
RMM:   4    -0.414425324762E+02    0.18552E-03   -0.33683E-04 12096   0.966E-02    0.118E-01
RMM:   5    -0.414424932007E+02    0.39275E-04   -0.37662E-05 10438   0.343E-02    0.855E-02
RMM:   6    -0.414424932574E+02   -0.56712E-07   -0.47468E-06  6372   0.130E-02
  10 F= -.41442493E+02 E0= -.41435571E+02  d E =-.178871E+02  mag=     0.7359
       N       E                     dE             d eps       ncg     rms          rms(c)
DAV:   1    -0.414425283286E+02   -0.35128E-04   -0.53900E-04 16272   0.141E-01    0.561E-02
RMM:   2    -0.414425138058E+02    0.14523E-04   -0.12373E-05  6353   0.173E-02    0.432E-02
RMM:   3    -0.414425103539E+02    0.34519E-05   -0.50945E-06  6121   0.100E-02
  11 F= -.41442510E+02 E0= -.41435567E+02  d E =-.178871E+02  mag=     0.7356
       N       E                     dE             d eps       ncg     rms          rms(c)
DAV:   1    -0.414425088461E+02    0.49597E-05   -0.71792E-05 16296   0.459E-02    0.368E-02
RMM:   2    -0.414425068097E+02    0.20364E-05   -0.32026E-06  6112   0.816E-03
  12 F= -.41442507E+02 E0= -.41435584E+02  d E =-.178871E+02  mag=     0.7355
       N       E                     dE             d eps       ncg     rms          rms(c)
DAV:   1    -0.414425068673E+02    0.19788E-05   -0.19103E-05  9216   0.192E-02    0.298E-02
RMM:   2    -0.414425067799E+02    0.87420E-07   -0.13778E-06  6092   0.675E-03
  13 F= -.41442507E+02 E0= -.41435582E+02  d E =-.178871E+02  mag=     0.7353
       N       E                     dE             d eps       ncg     rms          rms(c)
DAV:   1    -0.414425053913E+02    0.14760E-05   -0.13815E-05  8712   0.143E-02    0.255E-02
RMM:   2    -0.414425047911E+02    0.60012E-06   -0.61631E-07  6047   0.470E-03
  14 F= -.41442505E+02 E0= -.41435574E+02  d E =-.178871E+02  mag=     0.7352
       N       E                     dE             d eps       ncg     rms          rms(c)
DAV:   1    -0.414425047184E+02    0.67289E-06   -0.41910E-06  8472   0.726E-03    0.215E-02
RMM:   2    -0.414425049551E+02   -0.23671E-06   -0.27977E-07  5166   0.307E-03
  15 F= -.41442505E+02 E0= -.41435574E+02  d E =-.178871E+02  mag=     0.7352
       N       E                     dE             d eps       ncg     rms          rms(c)
DAV:   1    -0.414425043596E+02    0.35880E-06   -0.38145E-06  8064   0.581E-03    0.192E-02
RMM:   2    -0.414425043536E+02    0.60113E-08   -0.54029E-08  1049   0.214E-03
  16 F= -.41442504E+02 E0= -.41435576E+02  d E =-.178871E+02  mag=     0.7350
       N       E                     dE             d eps       ncg     rms          rms(c)
DAV:   1    -0.414425049975E+02   -0.63789E-06   -0.28261E-06  7824   0.667E-03    0.148E-02
RMM:   2    -0.414425063872E+02   -0.13897E-05   -0.56191E-07  5658   0.415E-03
  17 F= -.41442506E+02 E0= -.41435577E+02  d E =-.178871E+02  mag=     0.7349
       N       E                     dE             d eps       ncg     rms          rms(c)
DAV:   1    -0.414425050698E+02   -0.72364E-07   -0.63271E-06  7608   0.934E-03    0.150E-02
RMM:   2    -0.414425054275E+02   -0.35762E-06   -0.52791E-08  1450   0.193E-03
  18 F= -.41442505E+02 E0= -.41435578E+02  d E =-.178871E+02  mag=     0.7348
       N       E                     dE             d eps       ncg     rms          rms(c)
DAV:   1    -0.414425054513E+02   -0.38147E-06   -0.15388E-06  7368   0.404E-03    0.146E-02
RMM:   2    -0.414425058202E+02   -0.36888E-06   -0.16868E-08  1049   0.174E-03
  19 F= -.41442506E+02 E0= -.41435580E+02  d E =-.178871E+02  mag=     0.7348
       N       E                     dE             d eps       ncg     rms          rms(c)
DAV:   1    -0.683260807241E+02   -0.26884E+02   -0.14052E+03 12960   0.242E+02    0.118E+02
RMM:   2    -0.464134029743E+02    0.21913E+02   -0.27174E+01 12096   0.253E+01    0.868E+01
RMM:   3    -0.238229250976E+02    0.22590E+02   -0.67195E+01 12096   0.457E+01    0.110E+01
RMM:   4    -0.237328283911E+02    0.90097E-01   -0.14881E+00 12096   0.796E+00    0.106E+01
RMM:   5    -0.236402728646E+02    0.92556E-01   -0.21598E-01 12096   0.264E+00    0.713E+00
RMM:   6    -0.236273444052E+02    0.12928E-01   -0.49193E-02 12096   0.126E+00    0.488E+00
RMM:   7    -0.235904679081E+02    0.36876E-01   -0.30461E-02 12096   0.104E+00    0.288E+00
RMM:   8    -0.235454206492E+02    0.45047E-01   -0.79467E-02 12096   0.124E+00    0.118E+00
RMM:   9    -0.235445170174E+02    0.90363E-03   -0.37106E-03 12106   0.382E-01    0.812E-01
RMM:  10    -0.235454449210E+02   -0.92790E-03   -0.36619E-04 12135   0.939E-02    0.754E-01
RMM:  11    -0.235502679726E+02   -0.48231E-02   -0.13713E-03 12096   0.196E-01    0.580E-01
RMM:  12    -0.235513897964E+02   -0.11218E-02   -0.86144E-04 12096   0.151E-01    0.526E-01
RMM:  13    -0.235521833155E+02   -0.79352E-03   -0.48459E-04 12091   0.112E-01    0.522E-01
RMM:  14    -0.235537496766E+02   -0.15664E-02   -0.92047E-04 12096   0.144E-01    0.289E-01
RMM:  15    -0.235541467533E+02   -0.39708E-03   -0.45948E-04 12086   0.110E-01    0.267E-01
RMM:  16    -0.235546644175E+02   -0.51766E-03   -0.73536E-04 12096   0.132E-01    0.266E-01
RMM:  17    -0.235547384783E+02   -0.74061E-04   -0.15468E-04 12003   0.684E-02    0.129E-01
RMM:  18    -0.235547719900E+02   -0.33512E-04   -0.74206E-05 11893   0.398E-02    0.104E-01
RMM:  19    -0.235548738115E+02   -0.10182E-03   -0.55764E-05 10713   0.368E-02    0.998E-02
RMM:  20    -0.235549507179E+02   -0.76906E-04   -0.47088E-05 10391   0.357E-02    0.114E-01
RMM:  21    -0.235550171800E+02   -0.66462E-04   -0.32151E-05  9341   0.305E-02    0.108E-01
RMM:  22    -0.235550425601E+02   -0.25380E-04   -0.13471E-05  6978   0.207E-02    0.907E-02
RMM:  23    -0.235551473634E+02   -0.10480E-03   -0.95639E-05 11687   0.491E-02    0.934E-02
RMM:  24    -0.235552274891E+02   -0.80126E-04   -0.10839E-04 11803   0.542E-02    0.908E-02
RMM:  25    -0.235552263389E+02    0.11503E-05   -0.39465E-06  6593   0.159E-02
  20 F= -.23555226E+02 E0= -.23551868E+02  d E =0.204069E-03  mag=    -0.0356
