<?xml version="1.0" encoding="ISO-8859-1"?>
<modeling>
 <generator>
  <i name="program" type="string">vasp </i>
  <i name="version" type="string">5.4.1  </i>
  <i name="subversion" type="string">24Jun15 (build Feb 12 2018 16:30:38) complex                          parallel </i>
  <i name="platform" type="string">IFC17.02.174_CrayMPICH7.6.2-MKL17.0.2.174 </i>
  <i name="date" type="string">2018 05 19 </i>
  <i name="time" type="string">04:48:49 </i>
 </generator>
 <incar>
  <i type="string" name="PREC">normal</i>
  <i type="string" name="ALGO"> fast</i>
  <i type="int" name="ISPIN">     2</i>
  <i name="AMIX">      0.20000000</i>
  <i name="BMIX">      0.00010000</i>
  <i name="AMIX_MAG">      0.10000000</i>
  <i name="BMIX_MAG">      0.00010000</i>
  <i type="int" name="INIMIX">     0</i>
  <i type="int" name="NELM">   220</i>
  <i type="int" name="IBRION">     2</i>
  <i name="EDIFF">      0.00001000</i>
  <i name="EDIFFG">     -0.02000000</i>
  <i type="int" name="NSW">   150</i>
  <i type="int" name="ISIF">     7</i>
  <i name="ENCUT">    600.00000000</i>
  <i type="string" name="LREAL"> auto</i>
  <i type="int" name="ISMEAR">     0</i>
  <i name="SIGMA">      0.05000000</i>
  <i type="int" name="LMAXMIX">     6</i>
  <i type="logical" name="LVTOT"> F  </i>
  <i type="logical" name="LORBIT"> F  </i>
  <i type="logical" name="LASPH"> T  </i>
  <v type="int" name="KPOINT_BSE">    -1     0     0     0</v>
  <i type="int" name="NELM">   220</i>
  <i type="string" name="GGA"> PE</i>
  <i type="logical" name="LDAU"> F  </i>
  <v type="int" name="LDAUTYPE">     2</v>
  <v type="int" name="LDAUL">    -1    -1</v>
  <v name="LDAUU">      0.00000000      0.00000000</v>
  <v name="LDAUJ">      0.00000000      0.00000000</v>
  <i type="int" name="LDAUPRINT">     2</i>
  <i type="logical" name="LASPH"> T  </i>
 </incar>
 <kpoints>
  <generation param="Gamma">
   <v type="int" name="divisions">       5        5        5 </v>
   <v name="usershift">      0.00000000       0.00000000       0.00000000 </v>
   <v name="genvec1">      0.20000000       0.00000000       0.00000000 </v>
   <v name="genvec2">      0.00000000       0.20000000       0.00000000 </v>
   <v name="genvec3">      0.00000000       0.00000000       0.20000000 </v>
   <v name="shift">      0.00000000       0.00000000       0.00000000 </v>
  </generation>
  <varray name="kpointlist" >
   <v>       0.00000000       0.00000000       0.00000000 </v>
   <v>       0.20000000       0.00000000       0.00000000 </v>
   <v>       0.40000000       0.00000000       0.00000000 </v>
   <v>       0.00000000       0.20000000       0.00000000 </v>
   <v>       0.20000000       0.20000000       0.00000000 </v>
   <v>       0.40000000       0.20000000       0.00000000 </v>
   <v>      -0.40000000       0.20000000       0.00000000 </v>
   <v>      -0.20000000       0.20000000       0.00000000 </v>
   <v>       0.00000000       0.40000000       0.00000000 </v>
   <v>       0.20000000       0.40000000       0.00000000 </v>
   <v>       0.40000000       0.40000000       0.00000000 </v>
   <v>      -0.40000000       0.40000000       0.00000000 </v>
   <v>      -0.20000000       0.40000000       0.00000000 </v>
   <v>       0.00000000       0.00000000       0.20000000 </v>
   <v>       0.20000000       0.00000000       0.20000000 </v>
   <v>       0.40000000       0.00000000       0.20000000 </v>
   <v>      -0.40000000       0.00000000       0.20000000 </v>
   <v>      -0.20000000       0.00000000       0.20000000 </v>
   <v>       0.00000000       0.20000000       0.20000000 </v>
   <v>       0.20000000       0.20000000       0.20000000 </v>
   <v>       0.40000000       0.20000000       0.20000000 </v>
   <v>      -0.40000000       0.20000000       0.20000000 </v>
   <v>      -0.20000000       0.20000000       0.20000000 </v>
   <v>       0.00000000       0.40000000       0.20000000 </v>
   <v>       0.20000000       0.40000000       0.20000000 </v>
   <v>       0.40000000       0.40000000       0.20000000 </v>
   <v>      -0.40000000       0.40000000       0.20000000 </v>
   <v>      -0.20000000       0.40000000       0.20000000 </v>
   <v>       0.00000000      -0.40000000       0.20000000 </v>
   <v>       0.20000000      -0.40000000       0.20000000 </v>
   <v>       0.40000000      -0.40000000       0.20000000 </v>
   <v>      -0.40000000      -0.40000000       0.20000000 </v>
   <v>      -0.20000000      -0.40000000       0.20000000 </v>
   <v>       0.00000000      -0.20000000       0.20000000 </v>
   <v>       0.20000000      -0.20000000       0.20000000 </v>
   <v>       0.40000000      -0.20000000       0.20000000 </v>
   <v>      -0.40000000      -0.20000000       0.20000000 </v>
   <v>      -0.20000000      -0.20000000       0.20000000 </v>
   <v>       0.00000000       0.00000000       0.40000000 </v>
   <v>       0.20000000       0.00000000       0.40000000 </v>
   <v>       0.40000000       0.00000000       0.40000000 </v>
   <v>      -0.40000000       0.00000000       0.40000000 </v>
   <v>      -0.20000000       0.00000000       0.40000000 </v>
   <v>       0.00000000       0.20000000       0.40000000 </v>
   <v>       0.20000000       0.20000000       0.40000000 </v>
   <v>       0.40000000       0.20000000       0.40000000 </v>
   <v>      -0.40000000       0.20000000       0.40000000 </v>
   <v>      -0.20000000       0.20000000       0.40000000 </v>
   <v>       0.00000000       0.40000000       0.40000000 </v>
   <v>       0.20000000       0.40000000       0.40000000 </v>
   <v>       0.40000000       0.40000000       0.40000000 </v>
   <v>      -0.40000000       0.40000000       0.40000000 </v>
   <v>      -0.20000000       0.40000000       0.40000000 </v>
   <v>       0.00000000      -0.40000000       0.40000000 </v>
   <v>       0.20000000      -0.40000000       0.40000000 </v>
   <v>       0.40000000      -0.40000000       0.40000000 </v>
   <v>      -0.40000000      -0.40000000       0.40000000 </v>
   <v>      -0.20000000      -0.40000000       0.40000000 </v>
   <v>       0.00000000      -0.20000000       0.40000000 </v>
   <v>       0.20000000      -0.20000000       0.40000000 </v>
   <v>       0.40000000      -0.20000000       0.40000000 </v>
   <v>      -0.40000000      -0.20000000       0.40000000 </v>
   <v>      -0.20000000      -0.20000000       0.40000000 </v>
  </varray>
  <varray name="weights" >
   <v>       0.00800000 </v>
   <v>       0.01600000 </v>
   <v>       0.01600000 </v>
   <v>       0.01600000 </v>
   <v>       0.01600000 </v>
   <v>       0.01600000 </v>
   <v>       0.01600000 </v>
   <v>       0.01600000 </v>
   <v>       0.01600000 </v>
   <v>       0.01600000 </v>
   <v>       0.01600000 </v>
   <v>       0.01600000 </v>
   <v>       0.01600000 </v>
   <v>       0.01600000 </v>
   <v>       0.01600000 </v>
   <v>       0.01600000 </v>
   <v>       0.01600000 </v>
   <v>       0.01600000 </v>
   <v>       0.01600000 </v>
   <v>       0.01600000 </v>
   <v>       0.01600000 </v>
   <v>       0.01600000 </v>
   <v>       0.01600000 </v>
   <v>       0.01600000 </v>
   <v>       0.01600000 </v>
   <v>       0.01600000 </v>
   <v>       0.01600000 </v>
   <v>       0.01600000 </v>
   <v>       0.01600000 </v>
   <v>       0.01600000 </v>
   <v>       0.01600000 </v>
   <v>       0.01600000 </v>
   <v>       0.01600000 </v>
   <v>       0.01600000 </v>
   <v>       0.01600000 </v>
   <v>       0.01600000 </v>
   <v>       0.01600000 </v>
   <v>       0.01600000 </v>
   <v>       0.01600000 </v>
   <v>       0.01600000 </v>
   <v>       0.01600000 </v>
   <v>       0.01600000 </v>
   <v>       0.01600000 </v>
   <v>       0.01600000 </v>
   <v>       0.01600000 </v>
   <v>       0.01600000 </v>
   <v>       0.01600000 </v>
   <v>       0.01600000 </v>
   <v>       0.01600000 </v>
   <v>       0.01600000 </v>
   <v>       0.01600000 </v>
   <v>       0.01600000 </v>
   <v>       0.01600000 </v>
   <v>       0.01600000 </v>
   <v>       0.01600000 </v>
   <v>       0.01600000 </v>
   <v>       0.01600000 </v>
   <v>       0.01600000 </v>
   <v>       0.01600000 </v>
   <v>       0.01600000 </v>
   <v>       0.01600000 </v>
   <v>       0.01600000 </v>
   <v>       0.01600000 </v>
  </varray>
 </kpoints>
 <parameters>
  <separator name="general" >
   <i type="string" name="SYSTEM">unknown system</i>
   <i type="logical" name="LCOMPAT"> F  </i>
  </separator>
  <separator name="electronic" >
   <i type="string" name="PREC">normal</i>
   <i name="ENMAX">    600.00000000</i>
   <i name="ENAUG">    605.39200000</i>
   <i name="EDIFF">      0.00001000</i>
   <i type="int" name="IALGO">    68</i>
   <i type="int" name="IWAVPR">    11</i>
   <i type="int" name="NBANDS">    48</i>
   <i name="NELECT">     54.00000000</i>
   <i type="int" name="TURBO">     0</i>
   <i type="int" name="IRESTART">     0</i>
   <i type="int" name="NREBOOT">     0</i>
   <i type="int" name="NMIN">     0</i>
   <i name="EREF">      0.00000000</i>
   <separator name="electronic smearing" >
    <i type="int" name="ISMEAR">     0</i>
    <i name="SIGMA">      0.05000000</i>
    <i name="KSPACING">      0.50000000</i>
    <i type="logical" name="KGAMMA"> T  </i>
   </separator>
   <separator name="electronic projectors" >
    <i type="logical" name="LREAL"> T  </i>
    <v name="ROPT">     -0.00050000     -0.00050000</v>
    <i type="int" name="LMAXPAW">  -100</i>
    <i type="int" name="LMAXMIX">     6</i>
    <i type="logical" name="NLSPLINE"> F  </i>
   </separator>
   <separator name="electronic startup" >
    <i type="int" name="ISTART">     0</i>
    <i type="int" name="ICHARG">     2</i>
    <i type="int" name="INIWAV">     1</i>
   </separator>
   <separator name="electronic spin" >
    <i type="int" name="ISPIN">     2</i>
    <i type="logical" name="LNONCOLLINEAR"> F  </i>
    <v name="MAGMOM">      1.00000000      1.00000000      1.00000000      1.00000000      1.00000000      1.00000000      1.00000000      1.00000000</v>
    <i name="NUPDOWN">     -1.00000000</i>
    <i type="logical" name="LSORBIT"> F  </i>
    <v name="SAXIS">      0.00000000      0.00000000      1.00000000</v>
    <i type="logical" name="LSPIRAL"> F  </i>
    <v name="QSPIRAL">      0.00000000      0.00000000      0.00000000</v>
    <i type="logical" name="LZEROZ"> F  </i>
   </separator>
   <separator name="electronic exchange-correlation" >
    <i type="logical" name="LASPH"> T  </i>
    <i type="logical" name="LMETAGGA"> F  </i>
   </separator>
   <separator name="electronic convergence" >
    <i type="int" name="NELM">   220</i>
    <i type="int" name="NELMDL">    -5</i>
    <i type="int" name="NELMIN">     2</i>
    <i name="ENINI">    600.00000000</i>
    <separator name="electronic convergence detail" >
     <i type="logical" name="LDIAG"> T  </i>
     <i type="logical" name="LSUBROT"> F  </i>
     <i name="WEIMIN">      0.00100000</i>
     <i name="EBREAK">      0.00000005</i>
     <i name="DEPER">      0.30000000</i>
     <i type="int" name="NRMM">     4</i>
     <i name="TIME">      0.40000000</i>
    </separator>
   </separator>
   <separator name="electronic mixer" >
    <i name="AMIX">      0.20000000</i>
    <i name="BMIX">      0.00010000</i>
    <i name="AMIN">      0.10000000</i>
    <i name="AMIX_MAG">      0.10000000</i>
    <i name="BMIX_MAG">      0.00010000</i>
    <separator name="electronic mixer details" >
     <i type="int" name="IMIX">     4</i>
     <i type="logical" name="MIXFIRST"> F  </i>
     <i type="int" name="MAXMIX">   -45</i>
     <i name="WC">    100.00000000</i>
     <i type="int" name="INIMIX">     0</i>
     <i type="int" name="MIXPRE">     1</i>
     <i type="int" name="MREMOVE">     5</i>
    </separator>
   </separator>
   <separator name="electronic dipolcorrection" >
    <i type="logical" name="LDIPOL"> F  </i>
    <i type="logical" name="LMONO"> F  </i>
    <i type="int" name="IDIPOL">     0</i>
    <i name="EPSILON">      1.00000000</i>
    <v name="DIPOL">   -100.00000000   -100.00000000   -100.00000000</v>
    <i name="EFIELD">      0.00000000</i>
   </separator>
  </separator>
  <separator name="grids" >
   <i type="int" name="NGX">    24</i>
   <i type="int" name="NGY">    24</i>
   <i type="int" name="NGZ">    24</i>
   <i type="int" name="NGXF">    48</i>
   <i type="int" name="NGYF">    48</i>
   <i type="int" name="NGZF">    48</i>
   <i type="logical" name="ADDGRID"> F  </i>
  </separator>
  <separator name="ionic" >
   <i type="int" name="NSW">   150</i>
   <i type="int" name="IBRION">     2</i>
   <i type="int" name="ISIF">     7</i>
   <i name="PSTRESS">      0.00000000</i>
   <i name="EDIFFG">     -0.02000000</i>
   <i type="int" name="NFREE">     1</i>
   <i name="POTIM">      0.50000000</i>
   <i name="SMASS">     -3.00000000</i>
   <i name="SCALEE">      1.00000000</i>
  </separator>
  <separator name="ionic md" >
   <i name="TEBEG">      0.00010000</i>
   <i name="TEEND">      0.00010000</i>
   <i type="int" name="NBLOCK">     1</i>
   <i type="int" name="KBLOCK">   150</i>
   <i type="int" name="NPACO">   256</i>
   <i name="APACO">     16.00000000</i>
  </separator>
  <separator name="symmetry" >
   <i type="int" name="ISYM">     2</i>
   <i name="SYMPREC">      0.00001000</i>
  </separator>
  <separator name="dos" >
   <i type="logical" name="LORBIT"> F  </i>
   <v name="RWIGS">     -1.00000000     -1.00000000</v>
   <i type="int" name="NEDOS">   301</i>
   <i name="EMIN">     10.00000000</i>
   <i name="EMAX">    -10.00000000</i>
   <i name="EFERMI">      0.00000000</i>
  </separator>
  <separator name="writing" >
   <i type="int" name="NWRITE">     2</i>
   <i type="logical" name="LWAVE"> T  </i>
   <i type="logical" name="LCHARG"> T  </i>
   <i type="logical" name="LPARD"> F  </i>
   <i type="logical" name="LVTOT"> F  </i>
   <i type="logical" name="LVHAR"> F  </i>
   <i type="logical" name="LELF"> F  </i>
   <i type="logical" name="LOPTICS"> F  </i>
   <v name="STM">      0.00000000      0.00000000      0.00000000      0.00000000      0.00000000      0.00000000      0.00000000</v>
  </separator>
  <separator name="performance" >
   <i type="int" name="NPAR">    24</i>
   <i type="int" name="NSIM">     4</i>
   <i type="int" name="NBLK">    -1</i>
   <i type="logical" name="LPLANE"> T  </i>
   <i type="logical" name="LSCALAPACK"> T  </i>
   <i type="logical" name="LSCAAWARE"> F  </i>
   <i type="logical" name="LSCALU"> F  </i>
   <i type="logical" name="LASYNC"> F  </i>
   <i type="logical" name="LORBITALREAL"> F  </i>
  </separator>
  <separator name="miscellaneous" >
   <i type="int" name="IDIOT">     3</i>
   <i type="logical" name="LMUSIC"> F  </i>
   <v name="POMASS">    192.22000000     16.00000000</v>
   <v name="DARWINR">      0.00000000      0.00000000</v>
   <v name="DARWINV">      1.00000000      1.00000000</v>
   <i type="logical" name="LCORR"> T  </i>
  </separator>
  <i type="logical" name="GGA_COMPAT"> T  </i>
  <i type="logical" name="LBERRY"> F  </i>
  <i type="int" name="ICORELEVEL">     0</i>
  <i type="logical" name="LDAU"> F  </i>
  <i type="int" name="I_CONSTRAINED_M">     0</i>
  <separator name="electronic exchange-correlation" >
   <i type="string" name="GGA">PE</i>
   <i type="int" name="VOSKOWN">     0</i>
   <i type="logical" name="LHFCALC"> F  </i>
   <i type="string" name="PRECFOCK"></i>
   <i type="logical" name="LSYMGRAD"> F  </i>
   <i type="logical" name="LHFONE"> F  </i>
   <i type="logical" name="LRHFCALC"> F  </i>
   <i type="logical" name="LTHOMAS"> F  </i>
   <i type="logical" name="LMODELHF"> F  </i>
   <i name="ENCUT4O">     -1.00000000</i>
   <i type="int" name="EXXOEP">     0</i>
   <i type="int" name="FOURORBIT">     0</i>
   <i name="AEXX">      0.00000000</i>
   <i name="HFALPHA">      0.00000000</i>
   <i name="MCALPHA">      0.00000000</i>
   <i name="ALDAX">      1.00000000</i>
   <i name="AGGAX">      1.00000000</i>
   <i name="ALDAC">      1.00000000</i>
   <i name="AGGAC">      1.00000000</i>
   <i type="int" name="NKREDX">     1</i>
   <i type="int" name="NKREDY">     1</i>
   <i type="int" name="NKREDZ">     1</i>
   <i type="logical" name="SHIFTRED"> F  </i>
   <i type="logical" name="ODDONLY"> F  </i>
   <i type="logical" name="EVENONLY"> F  </i>
   <i type="int" name="LMAXFOCK">     0</i>
   <i type="int" name="NMAXFOCKAE">     0</i>
   <i type="logical" name="LFOCKAEDFT"> F  </i>
   <i name="HFSCREEN">      0.00000000</i>
   <i name="HFSCREENC">      0.00000000</i>
   <i type="int" name="NBANDSGWLOW">     0</i>
  </separator>
  <separator name="vdW DFT" >
   <i type="logical" name="LUSE_VDW"> F  </i>
   <i name="Zab_VDW">     -0.84910000</i>
   <i name="PARAM1">      0.12340000</i>
   <i name="PARAM2">      1.00000000</i>
   <i name="PARAM3">      0.00000000</i>
  </separator>
  <separator name="model GW" >
   <i type="int" name="MODEL_GW">     0</i>
   <i name="MODEL_EPS0">      3.53031803</i>
   <i name="MODEL_ALPHA">      1.00000000</i>
  </separator>
  <separator name="linear response parameters" >
   <i type="logical" name="LEPSILON"> F  </i>
   <i type="logical" name="LRPA"> F  </i>
   <i type="logical" name="LNABLA"> F  </i>
   <i type="logical" name="LVEL"> F  </i>
   <i type="int" name="KINTER">     0</i>
   <i name="CSHIFT">      0.10000000</i>
   <i name="OMEGAMAX">     -1.00000000</i>
   <i name="DEG_THRESHOLD">      0.00200000</i>
  </separator>
  <separator name="orbital magnetization" >
   <i type="logical" name="NUCIND"> F  </i>
   <v name="MAGPOS">      0.00000000      0.00000000      0.00000000</v>
   <i type="logical" name="LNICSALL"> T  </i>
   <i type="logical" name="ORBITALMAG"> F  </i>
   <i type="logical" name="LMAGBLOCH"> F  </i>
   <i type="logical" name="LCHIMAG"> F  </i>
   <i type="logical" name="LGAUGE"> T  </i>
   <i type="int" name="MAGATOM">     0</i>
   <v name="MAGDIPOL">      0.00000000      0.00000000      0.00000000</v>
   <v name="AVECCONST">      0.00000000      0.00000000      0.00000000</v>
  </separator>
  <separator name="response functions" >
   <i type="logical" name="LADDER"> F  </i>
   <i type="logical" name="LFXC"> F  </i>
   <i type="logical" name="LHARTREE"> T  </i>
   <i type="int" name="IBSE">     0</i>
   <v type="int" name="KPOINT">    -1     0     0     0</v>
   <i type="logical" name="LTCTE"> F  </i>
   <i type="logical" name="LTETE"> F  </i>
   <i type="logical" name="LTRIPLET"> F  </i>
   <i type="logical" name="LFXCEPS"> F  </i>
   <i type="logical" name="LFXHEG"> F  </i>
   <i type="int" name="NATURALO">     0</i>
   <i type="logical" name="L2ORDER"> F  </i>
   <i type="logical" name="LUSEW"> F  </i>
   <i name="ENCUTGW">     -2.00000000</i>
   <i name="ENCUTGWSOFT">     -2.00000000</i>
   <i name="ENCUTLF">     -1.00000000</i>
   <i type="int" name="LMAXMP2">    -1</i>
   <i name="SCISSOR">      0.00000000</i>
   <i type="int" name="NOMEGA">     0</i>
   <i type="int" name="NOMEGAR">     0</i>
   <i type="int" name="NBANDSGW">    -1</i>
   <i type="int" name="NBANDSO">    -1</i>
   <i type="int" name="NBANDSV">    -1</i>
   <i type="int" name="NELM">   220</i>
   <i type="int" name="NELMHF">     1</i>
   <i type="int" name="DIM">     3</i>
   <i type="int" name="ANTIRES">     0</i>
   <i name="OMEGAMAX">    -30.00000000</i>
   <i name="OMEGAMIN">    -30.00000000</i>
   <i name="OMEGATL">   -200.00000000</i>
   <i type="int" name="OMEGAGRID">     0</i>
   <i name="CSHIFT">     -0.10000000</i>
   <i type="logical" name="SELFENERGY"> F  </i>
   <i type="logical" name="LSPECTRAL"> F  </i>
   <i type="logical" name="LSPECTRALGW"> F  </i>
   <i type="logical" name="LSINGLES"> F  </i>
   <i type="logical" name="LFERMIGW"> F  </i>
   <i type="logical" name="ODDONLYGW"> F  </i>
   <i type="logical" name="EVENONLYGW"> F  </i>
   <i type="int" name="NKREDLFX">     1</i>
   <i type="int" name="NKREDLFY">     1</i>
   <i type="int" name="NKREDLFZ">     1</i>
   <i type="int" name="MAXMEM">  1800</i>
   <i type="int" name="TELESCOPE">     0</i>
   <i type="int" name="TAUPAR">     1</i>
   <i type="int" name="OMEGAPAR">    -1</i>
   <i name="LAMBDA">      1.00000000</i>
  </separator>
  <separator name="External order field" >
   <i name="OFIELD_KAPPA">      0.00000000</i>
   <v name="OFIELD_K">      0.00000000      0.00000000      0.00000000</v>
   <i name="OFIELD_Q6_NEAR">      0.00000000</i>
   <i name="OFIELD_Q6_FAR">      0.00000000</i>
   <i name="OFIELD_A">      0.00000000</i>
  </separator>
  <separator name="solvation model" >
   <i type="logical" name="LSOL"> F  </i>
  </separator>
 </parameters>
 <atominfo>
  <atoms>       8 </atoms>
  <types>       2 </types>
  <array name="atoms" >
   <dimension dim="1">ion</dimension>
   <field type="string">element</field>
   <field type="int">atomtype</field>
   <set>
    <rc><c>Ir</c><c>   1</c></rc>
    <rc><c>Ir</c><c>   1</c></rc>
    <rc><c>O </c><c>   2</c></rc>
    <rc><c>O </c><c>   2</c></rc>
    <rc><c>O </c><c>   2</c></rc>
    <rc><c>O </c><c>   2</c></rc>
    <rc><c>O </c><c>   2</c></rc>
    <rc><c>O </c><c>   2</c></rc>
   </set>
  </array>
  <array name="atomtypes" >
   <dimension dim="1">type</dimension>
   <field type="int">atomspertype</field>
   <field type="string">element</field>
   <field>mass</field>
   <field>valence</field>
   <field type="string">pseudopotential</field>
   <set>
    <rc><c>   2</c><c>Ir</c><c>    192.22000000</c><c>      9.00000000</c><c>  PAW_PBE Ir 06Sep2000                  </c></rc>
    <rc><c>   6</c><c>O </c><c>     16.00000000</c><c>      6.00000000</c><c>  PAW_PBE O 08Apr2002                   </c></rc>
   </set>
  </array>
 </atominfo>
 <structure name="initialpos" >
  <crystal>
   <varray name="basis" >
    <v>       3.61064000       0.00000000       0.00000000 </v>
    <v>       0.00000000       3.61064000       0.00000000 </v>
    <v>       0.00000000       0.00000000       3.61064000 </v>
   </varray>
   <i name="volume">     47.07090707 </i>
   <varray name="rec_basis" >
    <v>       0.27695921       0.00000000       0.00000000 </v>
    <v>       0.00000000       0.27695921       0.00000000 </v>
    <v>       0.00000000       0.00000000       0.27695921 </v>
   </varray>
  </crystal>
  <varray name="positions" >
   <v>       0.00033000       0.99991000       0.00043000 </v>
   <v>       0.50102000       0.49984000       0.49984000 </v>
   <v>       0.00106000       0.50051000       0.49969000 </v>
   <v>       0.50036000       0.49969000       0.99969000 </v>
   <v>       0.50016000       0.99872000       0.49884000 </v>
   <v>       0.49962000       0.99932000       0.00021000 </v>
   <v>       0.99939000       0.99905000       0.50098000 </v>
   <v>       0.99985000       0.50005000       0.99905000 </v>
  </varray>
 </structure>
 <calculation>
  <scstep>
   <time name="dav">    0.38    0.42</time>
   <time name="total">    1.03    1.08</time>
   <energy>
    <i name="alphaZ">    450.09317270 </i>
    <i name="ewald">  -4204.21443528 </i>
    <i name="hartreedc">   -370.14821222 </i>
    <i name="XCdc">    145.28176589 </i>
    <i name="pawpsdc">   3181.06092036 </i>
    <i name="pawaedc">  -3111.19667652 </i>
    <i name="eentropy">     -0.00198740 </i>
    <i name="bandstr">    585.00233147 </i>
    <i name="atom">   3714.53685730 </i>
    <i name="e_fr_energy">    390.41373630 </i>
    <i name="e_wo_entrp">    390.41572370 </i>
    <i name="e_0_energy">    390.41473000 </i>
   </energy>
  </scstep>
  <scstep>
   <time name="dav">    0.44    0.45</time>
   <time name="total">    0.45    0.46</time>
   <energy>
    <i name="e_fr_energy">    -23.47385647 </i>
    <i name="e_wo_entrp">    -23.47208870 </i>
    <i name="e_0_energy">    -23.47297258 </i>
   </energy>
  </scstep>
  <scstep>
   <time name="dav">    0.56    0.56</time>
   <time name="total">    0.57    0.58</time>
   <energy>
    <i name="e_fr_energy">    -35.21293440 </i>
    <i name="e_wo_entrp">    -35.20651120 </i>
    <i name="e_0_energy">    -35.20972280 </i>
   </energy>
  </scstep>
  <scstep>
   <time name="dav">    0.52    0.52</time>
   <time name="total">    0.52    0.53</time>
   <energy>
    <i name="e_fr_energy">    -35.27851327 </i>
    <i name="e_wo_entrp">    -35.27208770 </i>
    <i name="e_0_energy">    -35.27530048 </i>
   </energy>
  </scstep>
  <scstep>
   <time name="dav">    0.55    0.55</time>
   <time name="total">    0.57    0.58</time>
   <energy>
    <i name="e_fr_energy">    -35.27926798 </i>
    <i name="e_wo_entrp">    -35.27284241 </i>
    <i name="e_0_energy">    -35.27605520 </i>
   </energy>
  </scstep>
  <scstep>
   <time name="diag">    0.07    0.07</time>
   <time name="diis">    0.12    0.12</time>
   <time name="orth">    0.01    0.01</time>
   <time name="total">    0.83    0.84</time>
   <energy>
    <i name="e_fr_energy">    -23.15590982 </i>
    <i name="e_wo_entrp">    -23.15362461 </i>
    <i name="e_0_energy">    -23.15476721 </i>
   </energy>
  </scstep>
  <scstep>
   <time name="diag">    0.07    0.07</time>
   <time name="diis">    0.10    0.10</time>
   <time name="orth">    0.01    0.01</time>
   <time name="total">    0.81    0.82</time>
   <energy>
    <i name="e_fr_energy">    -22.96598653 </i>
    <i name="e_wo_entrp">    -22.96217088 </i>
    <i name="e_0_energy">    -22.96407870 </i>
   </energy>
  </scstep>
  <scstep>
   <time name="diag">    0.07    0.07</time>
   <time name="diis">    0.10    0.10</time>
   <time name="orth">    0.01    0.01</time>
   <time name="total">    0.82    0.82</time>
   <energy>
    <i name="e_fr_energy">    -23.23822059 </i>
    <i name="e_wo_entrp">    -23.22943788 </i>
    <i name="e_0_energy">    -23.23382924 </i>
   </energy>
  </scstep>
  <scstep>
   <time name="diag">    0.07    0.07</time>
   <time name="diis">    0.11    0.11</time>
   <time name="orth">    0.01    0.01</time>
   <time name="total">    0.79    0.83</time>
   <energy>
    <i name="e_fr_energy">    -23.25904921 </i>
    <i name="e_wo_entrp">    -23.25596868 </i>
    <i name="e_0_energy">    -23.25750894 </i>
   </energy>
  </scstep>
  <scstep>
   <time name="diag">    0.07    0.07</time>
   <time name="diis">    0.10    0.10</time>
   <time name="orth">    0.01    0.01</time>
   <time name="total">    0.81    0.82</time>
   <energy>
    <i name="e_fr_energy">    -23.33807956 </i>
    <i name="e_wo_entrp">    -23.33201239 </i>
    <i name="e_0_energy">    -23.33504598 </i>
   </energy>
  </scstep>
  <scstep>
   <time name="diag">    0.07    0.07</time>
   <time name="diis">    0.10    0.10</time>
   <time name="orth">    0.01    0.01</time>
   <time name="total">    0.81    0.81</time>
   <energy>
    <i name="e_fr_energy">    -23.35962868 </i>
    <i name="e_wo_entrp">    -23.35043910 </i>
    <i name="e_0_energy">    -23.35503389 </i>
   </energy>
  </scstep>
  <scstep>
   <time name="diag">    0.07    0.07</time>
   <time name="diis">    0.10    0.10</time>
   <time name="orth">    0.01    0.01</time>
   <time name="total">    0.81    0.82</time>
   <energy>
    <i name="e_fr_energy">    -23.42603426 </i>
    <i name="e_wo_entrp">    -23.41073766 </i>
    <i name="e_0_energy">    -23.41838596 </i>
   </energy>
  </scstep>
  <scstep>
   <time name="diag">    0.07    0.07</time>
   <time name="diis">    0.12    0.11</time>
   <time name="orth">    0.01    0.01</time>
   <time name="total">    0.83    0.83</time>
   <energy>
    <i name="e_fr_energy">    -23.43826400 </i>
    <i name="e_wo_entrp">    -23.42373334 </i>
    <i name="e_0_energy">    -23.43099867 </i>
   </energy>
  </scstep>
  <scstep>
   <time name="diag">    0.07    0.07</time>
   <time name="diis">    0.10    0.10</time>
   <time name="orth">    0.01    0.01</time>
   <time name="total">    0.77    0.81</time>
   <energy>
    <i name="e_fr_energy">    -23.43192554 </i>
    <i name="e_wo_entrp">    -23.41689877 </i>
    <i name="e_0_energy">    -23.42441216 </i>
   </energy>
  </scstep>
  <scstep>
   <time name="diag">    0.07    0.07</time>
   <time name="diis">    0.10    0.10</time>
   <time name="orth">    0.01    0.01</time>
   <time name="total">    0.81    0.82</time>
   <energy>
    <i name="e_fr_energy">    -23.51100410 </i>
    <i name="e_wo_entrp">    -23.50219594 </i>
    <i name="e_0_energy">    -23.50660002 </i>
   </energy>
  </scstep>
  <scstep>
   <time name="diag">    0.07    0.07</time>
   <time name="diis">    0.10    0.10</time>
   <time name="orth">    0.01    0.01</time>
   <time name="total">    0.81    0.82</time>
   <energy>
    <i name="e_fr_energy">    -23.55177350 </i>
    <i name="e_wo_entrp">    -23.54178138 </i>
    <i name="e_0_energy">    -23.54677744 </i>
   </energy>
  </scstep>
  <scstep>
   <time name="diag">    0.07    0.07</time>
   <time name="diis">    0.11    0.11</time>
   <time name="orth">    0.01    0.01</time>
   <time name="total">    0.82    0.83</time>
   <energy>
    <i name="e_fr_energy">    -23.54627595 </i>
    <i name="e_wo_entrp">    -23.53976465 </i>
    <i name="e_0_energy">    -23.54302030 </i>
   </energy>
  </scstep>
  <scstep>
   <time name="diag">    0.07    0.07</time>
   <time name="diis">    0.10    0.10</time>
   <time name="orth">    0.01    0.01</time>
   <time name="total">    0.82    0.82</time>
   <energy>
    <i name="e_fr_energy">    -23.54561415 </i>
    <i name="e_wo_entrp">    -23.53696030 </i>
    <i name="e_0_energy">    -23.54128723 </i>
   </energy>
  </scstep>
  <scstep>
   <time name="diag">    0.07    0.07</time>
   <time name="diis">    0.10    0.10</time>
   <time name="orth">    0.01    0.01</time>
   <time name="total">    0.82    0.82</time>
   <energy>
    <i name="e_fr_energy">    -23.54616893 </i>
    <i name="e_wo_entrp">    -23.53702907 </i>
    <i name="e_0_energy">    -23.54159900 </i>
   </energy>
  </scstep>
  <scstep>
   <time name="diag">    0.07    0.07</time>
   <time name="diis">    0.10    0.10</time>
   <time name="orth">    0.01    0.01</time>
   <time name="total">    0.74    0.82</time>
   <energy>
    <i name="e_fr_energy">    -23.55118812 </i>
    <i name="e_wo_entrp">    -23.54166121 </i>
    <i name="e_0_energy">    -23.54642467 </i>
   </energy>
  </scstep>
  <scstep>
   <time name="diag">    0.07    0.07</time>
   <time name="diis">    0.10    0.10</time>
   <time name="orth">    0.01    0.01</time>
   <time name="total">    0.81    0.82</time>
   <energy>
    <i name="e_fr_energy">    -23.55137871 </i>
    <i name="e_wo_entrp">    -23.54191667 </i>
    <i name="e_0_energy">    -23.54664769 </i>
   </energy>
  </scstep>
  <scstep>
   <time name="diag">    0.07    0.07</time>
   <time name="diis">    0.10    0.10</time>
   <time name="orth">    0.01    0.01</time>
   <time name="total">    0.81    0.82</time>
   <energy>
    <i name="e_fr_energy">    -23.55264008 </i>
    <i name="e_wo_entrp">    -23.54387918 </i>
    <i name="e_0_energy">    -23.54825963 </i>
   </energy>
  </scstep>
  <scstep>
   <time name="diag">    0.07    0.07</time>
   <time name="diis">    0.08    0.09</time>
   <time name="orth">    0.01    0.01</time>
   <time name="total">    0.80    0.81</time>
   <energy>
    <i name="e_fr_energy">    -23.55261216 </i>
    <i name="e_wo_entrp">    -23.54382412 </i>
    <i name="e_0_energy">    -23.54821814 </i>
   </energy>
  </scstep>
  <scstep>
   <time name="diag">    0.07    0.07</time>
   <time name="diis">    0.10    0.10</time>
   <time name="orth">    0.01    0.01</time>
   <time name="total">    0.21    1.44</time>
   <energy>
    <i name="e_fr_energy">    -23.55327884 </i>
    <i name="e_wo_entrp">    -23.54510798 </i>
    <i name="e_0_energy">    -23.54919341 </i>
   </energy>
  </scstep>
  <scstep>
   <time name="diag">    0.07    0.07</time>
   <time name="diis">    0.11    0.11</time>
   <time name="orth">    0.01    0.01</time>
   <time name="total">    0.82    0.83</time>
   <energy>
    <i name="e_fr_energy">    -23.55539115 </i>
    <i name="e_wo_entrp">    -23.54860774 </i>
    <i name="e_0_energy">    -23.55199945 </i>
   </energy>
  </scstep>
  <scstep>
   <time name="diag">    0.07    0.07</time>
   <time name="diis">    0.10    0.10</time>
   <time name="orth">    0.01    0.01</time>
   <time name="total">    0.82    0.82</time>
   <energy>
    <i name="e_fr_energy">    -23.55535604 </i>
    <i name="e_wo_entrp">    -23.54865465 </i>
    <i name="e_0_energy">    -23.55200534 </i>
   </energy>
  </scstep>
  <scstep>
   <time name="diag">    0.07    0.07</time>
   <time name="diis">    0.10    0.10</time>
   <time name="orth">    0.01    0.01</time>
   <time name="total">    0.82    0.82</time>
   <energy>
    <i name="e_fr_energy">    -23.55561952 </i>
    <i name="e_wo_entrp">    -23.54912032 </i>
    <i name="e_0_energy">    -23.55236992 </i>
   </energy>
  </scstep>
  <scstep>
   <time name="diag">    0.07    0.07</time>
   <time name="diis">    0.10    0.10</time>
   <time name="orth">    0.01    0.01</time>
   <time name="total">    0.82    0.82</time>
   <energy>
    <i name="e_fr_energy">    -23.55462453 </i>
    <i name="e_wo_entrp">    -23.54750889 </i>
    <i name="e_0_energy">    -23.55106671 </i>
   </energy>
  </scstep>
  <scstep>
   <time name="diag">    0.07    0.07</time>
   <time name="diis">    0.10    0.10</time>
   <time name="orth">    0.01    0.01</time>
   <time name="total">    0.81    0.82</time>
   <energy>
    <i name="e_fr_energy">    -23.55451273 </i>
    <i name="e_wo_entrp">    -23.54728614 </i>
    <i name="e_0_energy">    -23.55089943 </i>
   </energy>
  </scstep>
  <scstep>
   <time name="diag">    0.07    0.07</time>
   <time name="diis">    0.10    0.10</time>
   <time name="orth">    0.01    0.01</time>
   <time name="total">    0.82    0.82</time>
   <energy>
    <i name="e_fr_energy">    -23.55514901 </i>
    <i name="e_wo_entrp">    -23.54835059 </i>
    <i name="e_0_energy">    -23.55174980 </i>
   </energy>
  </scstep>
  <scstep>
   <time name="diag">    0.07    0.07</time>
   <time name="diis">    0.09    0.09</time>
   <time name="orth">    0.01    0.01</time>
   <time name="total">    0.78    0.82</time>
   <energy>
    <i name="e_fr_energy">    -23.55520980 </i>
    <i name="e_wo_entrp">    -23.54836306 </i>
    <i name="e_0_energy">    -23.55178643 </i>
   </energy>
  </scstep>
  <scstep>
   <time name="diag">    0.07    0.07</time>
   <time name="diis">    0.08    0.08</time>
   <time name="orth">    0.01    0.01</time>
   <time name="total">    0.79    0.80</time>
   <energy>
    <i name="e_fr_energy">    -23.55526205 </i>
    <i name="e_wo_entrp">    -23.54846194 </i>
    <i name="e_0_energy">    -23.55186199 </i>
   </energy>
  </scstep>
  <scstep>
   <time name="diag">    0.07    0.07</time>
   <time name="diis">    0.08    0.08</time>
   <time name="orth">    0.01    0.01</time>
   <time name="total">    0.80    0.80</time>
   <energy>
    <i name="e_fr_energy">    -23.55527270 </i>
    <i name="e_wo_entrp">    -23.54848668 </i>
    <i name="e_0_energy">    -23.55187969 </i>
   </energy>
  </scstep>
  <scstep>
   <time name="diag">    0.07    0.07</time>
   <time name="diis">    0.08    0.08</time>
   <time name="orth">    0.01    0.01</time>
   <time name="total">    0.80    0.80</time>
   <energy>
    <i name="e_fr_energy">    -23.55531282 </i>
    <i name="e_wo_entrp">    -23.54851697 </i>
    <i name="e_0_energy">    -23.55191489 </i>
   </energy>
  </scstep>
  <scstep>
   <time name="diag">    0.07    0.07</time>
   <time name="diis">    0.08    0.08</time>
   <time name="orth">    0.01    0.01</time>
   <time name="total">    0.79    0.80</time>
   <energy>
    <i name="e_fr_energy">    -23.55532485 </i>
    <i name="e_wo_entrp">    -23.54852277 </i>
    <i name="e_0_energy">    -23.55192381 </i>
   </energy>
  </scstep>
  <scstep>
   <time name="diag">    0.07    0.07</time>
   <time name="diis">    0.08    0.09</time>
   <time name="orth">    0.01    0.01</time>
   <time name="total">    0.80    0.80</time>
   <energy>
    <i name="e_fr_energy">    -23.55537403 </i>
    <i name="e_wo_entrp">    -23.54858613 </i>
    <i name="e_0_energy">    -23.55198008 </i>
   </energy>
  </scstep>
  <scstep>
   <time name="diag">    0.07    0.07</time>
   <time name="diis">    0.08    0.08</time>
   <time name="orth">    0.01    0.01</time>
   <time name="total">    0.79    0.79</time>
   <energy>
    <i name="e_fr_energy">    -23.55538693 </i>
    <i name="e_wo_entrp">    -23.54859679 </i>
    <i name="e_0_energy">    -23.55199186 </i>
   </energy>
  </scstep>
  <scstep>
   <time name="diag">    0.07    0.07</time>
   <time name="diis">    0.08    0.08</time>
   <time name="orth">    0.01    0.01</time>
   <time name="total">    0.79    0.80</time>
   <energy>
    <i name="e_fr_energy">    -23.55539893 </i>
    <i name="e_wo_entrp">    -23.54860966 </i>
    <i name="e_0_energy">    -23.55200429 </i>
   </energy>
  </scstep>
  <scstep>
   <time name="diag">    0.07    0.07</time>
   <time name="diis">    0.08    0.08</time>
   <time name="orth">    0.01    0.01</time>
   <time name="total">    0.79    0.80</time>
   <energy>
    <i name="e_fr_energy">    -23.55542096 </i>
    <i name="e_wo_entrp">    -23.54863192 </i>
    <i name="e_0_energy">    -23.55202644 </i>
   </energy>
  </scstep>
  <scstep>
   <time name="diag">    0.07    0.07</time>
   <time name="diis">    0.08    0.08</time>
   <time name="orth">    0.01    0.01</time>
   <time name="total">    0.78    0.78</time>
   <energy>
    <i name="alphaZ">    450.09317270 </i>
    <i name="ewald">  -4204.21443528 </i>
    <i name="hartreedc">   -424.19180917 </i>
    <i name="XCdc">    149.09686597 </i>
    <i name="pawpsdc">   7327.48330060 </i>
    <i name="pawaedc">  -7270.49970719 </i>
    <i name="eentropy">     -0.00679804 </i>
    <i name="bandstr">    234.14712270 </i>
    <i name="atom">   3714.53685730 </i>
    <i name="e_fr_energy">    -23.55543041 </i>
    <i name="e_wo_entrp">    -23.54863237 </i>
    <i name="e_0_energy">    -23.55203139 </i>
   </energy>
  </scstep>
  <structure>
   <crystal>
    <varray name="basis" >
     <v>       3.61064000       0.00000000       0.00000000 </v>
     <v>       0.00000000       3.61064000       0.00000000 </v>
     <v>       0.00000000       0.00000000       3.61064000 </v>
    </varray>
    <i name="volume">     47.07090707 </i>
    <varray name="rec_basis" >
     <v>       0.27695921       0.00000000       0.00000000 </v>
     <v>       0.00000000       0.27695921       0.00000000 </v>
     <v>       0.00000000       0.00000000       0.27695921 </v>
    </varray>
   </crystal>
   <varray name="positions" >
    <v>       0.00033000       0.99991000       0.00043000 </v>
    <v>       0.50102000       0.49984000       0.49984000 </v>
    <v>       0.00106000       0.50051000       0.49969000 </v>
    <v>       0.50036000       0.49969000       0.99969000 </v>
    <v>       0.50016000       0.99872000       0.49884000 </v>
    <v>       0.49962000       0.99932000       0.00021000 </v>
    <v>       0.99939000       0.99905000       0.50098000 </v>
    <v>       0.99985000       0.50005000       0.99905000 </v>
   </varray>
  </structure>
  <varray name="forces" >
   <v>      -0.12317999       0.09228086       0.06912460 </v>
   <v>      -0.10270942      -0.34069879      -0.02705956 </v>
   <v>       0.06167034      -0.14381476      -0.06344209 </v>
   <v>      -0.06304644      -0.01999039       0.02419673 </v>
   <v>      -0.09047165       0.21010063       0.16163778 </v>
   <v>       0.12874514       0.04327816      -0.17357905 </v>
   <v>       0.10971260       0.16408384      -0.04453919 </v>
   <v>       0.07927941      -0.00523955       0.05366079 </v>
  </varray>
  <varray name="stress" >
   <v>    3192.06855270      -0.16158279      -0.15885516 </v>
   <v>      -0.16158185    3190.11673265       0.03906898 </v>
   <v>      -0.15885511       0.03906676    3190.09515055 </v>
  </varray>
  <energy>
   <i name="e_fr_energy">    -23.55543041 </i>
   <i name="e_wo_entrp">    -23.55203139 </i>
   <i name="e_0_energy">     -0.00679804 </i>
  </energy>
  <time name="totalsc">   32.99   34.80</time>
 </calculation>
 <calculation>
  <scstep>
   <time name="dav">    0.28    0.28</time>
   <time name="total">    0.92    0.93</time>
   <energy>
    <i name="alphaZ">    117.35766012 </i>
    <i name="ewald">  -2685.88778790 </i>
    <i name="hartreedc">   -270.99414719 </i>
    <i name="XCdc">     75.55122121 </i>
    <i name="pawpsdc">   7327.25366434 </i>
    <i name="pawaedc">  -7270.26926505 </i>
    <i name="eentropy">     -0.01898661 </i>
    <i name="bandstr">  -1342.14528171 </i>
    <i name="atom">   3714.53685730 </i>
    <i name="e_fr_energy">   -334.61606549 </i>
    <i name="e_wo_entrp">   -334.59707889 </i>
    <i name="e_0_energy">   -334.60657219 </i>
   </energy>
  </scstep>
  <scstep>
   <time name="diag">    0.07    0.07</time>
   <time name="diis">    0.07    0.07</time>
   <time name="orth">    0.01    0.01</time>
   <time name="total">    0.78    0.79</time>
   <energy>
    <i name="e_fr_energy">   -201.37675900 </i>
    <i name="e_wo_entrp">   -201.25184459 </i>
    <i name="e_0_energy">   -201.31430180 </i>
   </energy>
  </scstep>
  <scstep>
   <time name="diag">    0.07    0.07</time>
   <time name="diis">    0.07    0.07</time>
   <time name="orth">    0.01    0.01</time>
   <time name="total">    0.78    0.79</time>
   <energy>
    <i name="e_fr_energy">   -135.86321695 </i>
    <i name="e_wo_entrp">   -135.83205386 </i>
    <i name="e_0_energy">   -135.84763541 </i>
   </energy>
  </scstep>
  <scstep>
   <time name="diag">    0.07    0.07</time>
   <time name="diis">    0.08    0.08</time>
   <time name="orth">    0.01    0.01</time>
   <time name="total">    0.79    0.80</time>
   <energy>
    <i name="e_fr_energy">    -58.86086417 </i>
    <i name="e_wo_entrp">    -58.82405706 </i>
    <i name="e_0_energy">    -58.84246062 </i>
   </energy>
  </scstep>
  <scstep>
   <time name="diag">    0.07    0.07</time>
   <time name="diis">    0.07    0.07</time>
   <time name="orth">    0.01    0.01</time>
   <time name="total">    0.78    0.79</time>
   <energy>
    <i name="e_fr_energy">    -60.00223790 </i>
    <i name="e_wo_entrp">    -59.96626240 </i>
    <i name="e_0_energy">    -59.98425015 </i>
   </energy>
  </scstep>
  <scstep>
   <time name="diag">    0.07    0.07</time>
   <time name="diis">    0.07    0.07</time>
   <time name="orth">    0.01    0.01</time>
   <time name="total">    0.77    0.79</time>
   <energy>
    <i name="e_fr_energy">    -60.79228153 </i>
    <i name="e_wo_entrp">    -60.76854044 </i>
    <i name="e_0_energy">    -60.78041098 </i>
   </energy>
  </scstep>
  <scstep>
   <time name="diag">    0.07    0.07</time>
   <time name="diis">    0.07    0.07</time>
   <time name="orth">    0.01    0.01</time>
   <time name="total">    0.79    0.79</time>
   <energy>
    <i name="e_fr_energy">    -57.91823504 </i>
    <i name="e_wo_entrp">    -57.91390094 </i>
    <i name="e_0_energy">    -57.91606799 </i>
   </energy>
  </scstep>
  <scstep>
   <time name="diag">    0.07    0.07</time>
   <time name="diis">    0.07    0.07</time>
   <time name="orth">    0.01    0.01</time>
   <time name="total">    0.72    0.79</time>
   <energy>
    <i name="e_fr_energy">    -31.35568507 </i>
    <i name="e_wo_entrp">    -31.34609123 </i>
    <i name="e_0_energy">    -31.35088815 </i>
   </energy>
  </scstep>
  <scstep>
   <time name="diag">    0.07    0.07</time>
   <time name="diis">    0.08    0.08</time>
   <time name="orth">    0.01    0.01</time>
   <time name="total">    0.77    0.80</time>
   <energy>
    <i name="e_fr_energy">    -22.21093151 </i>
    <i name="e_wo_entrp">    -22.18081822 </i>
    <i name="e_0_energy">    -22.19587487 </i>
   </energy>
  </scstep>
  <scstep>
   <time name="diag">    0.07    0.07</time>
   <time name="diis">    0.08    0.08</time>
   <time name="orth">    0.01    0.01</time>
   <time name="total">    0.79    0.79</time>
   <energy>
    <i name="e_fr_energy">    -15.77839064 </i>
    <i name="e_wo_entrp">    -15.75624208 </i>
    <i name="e_0_energy">    -15.76731636 </i>
   </energy>
  </scstep>
  <scstep>
   <time name="diag">    0.07    0.07</time>
   <time name="diis">    0.07    0.07</time>
   <time name="orth">    0.01    0.01</time>
   <time name="total">    0.79    0.79</time>
   <energy>
    <i name="e_fr_energy">    -29.35456299 </i>
    <i name="e_wo_entrp">    -29.33339408 </i>
    <i name="e_0_energy">    -29.34397854 </i>
   </energy>
  </scstep>
  <scstep>
   <time name="diag">    0.07    0.07</time>
   <time name="diis">    0.08    0.07</time>
   <time name="orth">    0.01    0.01</time>
   <time name="total">    0.78    0.79</time>
   <energy>
    <i name="e_fr_energy">     -8.39460359 </i>
    <i name="e_wo_entrp">     -8.37838352 </i>
    <i name="e_0_energy">     -8.38649355 </i>
   </energy>
  </scstep>
  <scstep>
   <time name="diag">    0.07    0.07</time>
   <time name="diis">    0.08    0.07</time>
   <time name="orth">    0.01    0.01</time>
   <time name="total">    0.72    0.79</time>
   <energy>
    <i name="e_fr_energy">     -8.54464666 </i>
    <i name="e_wo_entrp">     -8.52822858 </i>
    <i name="e_0_energy">     -8.53643762 </i>
   </energy>
  </scstep>
  <scstep>
   <time name="diag">    0.07    0.07</time>
   <time name="diis">    0.07    0.07</time>
   <time name="orth">    0.01    0.01</time>
   <time name="total">    0.78    0.79</time>
   <energy>
    <i name="e_fr_energy">     -7.74097203 </i>
    <i name="e_wo_entrp">     -7.72544714 </i>
    <i name="e_0_energy">     -7.73320959 </i>
   </energy>
  </scstep>
  <scstep>
   <time name="diag">    0.07    0.07</time>
   <time name="diis">    0.08    0.08</time>
   <time name="orth">    0.01    0.01</time>
   <time name="total">    0.78    0.80</time>
   <energy>
    <i name="e_fr_energy">     -7.25595599 </i>
    <i name="e_wo_entrp">     -7.24378824 </i>
    <i name="e_0_energy">     -7.24987211 </i>
   </energy>
  </scstep>
  <scstep>
   <time name="diag">    0.07    0.07</time>
   <time name="diis">    0.07    0.07</time>
   <time name="orth">    0.01    0.01</time>
   <time name="total">    0.78    0.79</time>
   <energy>
    <i name="e_fr_energy">     -7.33262128 </i>
    <i name="e_wo_entrp">     -7.32154308 </i>
    <i name="e_0_energy">     -7.32708218 </i>
   </energy>
  </scstep>
  <scstep>
   <time name="diag">    0.07    0.07</time>
   <time name="diis">    0.06    0.07</time>
   <time name="orth">    0.01    0.01</time>
   <time name="total">    0.78    0.78</time>
   <energy>
    <i name="e_fr_energy">     -5.75078152 </i>
    <i name="e_wo_entrp">     -5.72990259 </i>
    <i name="e_0_energy">     -5.74034205 </i>
   </energy>
  </scstep>
  <scstep>
   <time name="diag">    0.07    0.07</time>
   <time name="diis">    0.07    0.07</time>
   <time name="orth">    0.01    0.01</time>
   <time name="total">    0.78    0.79</time>
   <energy>
    <i name="e_fr_energy">     -3.97348122 </i>
    <i name="e_wo_entrp">     -3.95790932 </i>
    <i name="e_0_energy">     -3.96569527 </i>
   </energy>
  </scstep>
  <scstep>
   <time name="diag">    0.07    0.07</time>
   <time name="diis">    0.08    0.07</time>
   <time name="orth">    0.01    0.01</time>
   <time name="total">    0.79    0.79</time>
   <energy>
    <i name="e_fr_energy">     -2.50707364 </i>
    <i name="e_wo_entrp">     -2.47894636 </i>
    <i name="e_0_energy">     -2.49301000 </i>
   </energy>
  </scstep>
  <scstep>
   <time name="diag">    0.07    0.07</time>
   <time name="diis">    0.08    0.08</time>
   <time name="orth">    0.01    0.01</time>
   <time name="total">    0.74    0.80</time>
   <energy>
    <i name="e_fr_energy">     -3.46417000 </i>
    <i name="e_wo_entrp">     -3.44501181 </i>
    <i name="e_0_energy">     -3.45459091 </i>
   </energy>
  </scstep>
  <scstep>
   <time name="diag">    0.07    0.07</time>
   <time name="diis">    0.07    0.07</time>
   <time name="orth">    0.01    0.01</time>
   <time name="total">    0.78    0.79</time>
   <energy>
    <i name="e_fr_energy">     -3.69389530 </i>
    <i name="e_wo_entrp">     -3.66157366 </i>
    <i name="e_0_energy">     -3.67773448 </i>
   </energy>
  </scstep>
  <scstep>
   <time name="diag">    0.07    0.07</time>
   <time name="diis">    0.07    0.07</time>
   <time name="orth">    0.01    0.01</time>
   <time name="total">    0.76    0.78</time>
   <energy>
    <i name="e_fr_energy">     -2.95856583 </i>
    <i name="e_wo_entrp">     -2.93016860 </i>
    <i name="e_0_energy">     -2.94436722 </i>
   </energy>
  </scstep>
  <scstep>
   <time name="diag">    0.07    0.07</time>
   <time name="diis">    0.07    0.07</time>
   <time name="orth">    0.01    0.01</time>
   <time name="total">    0.78    0.79</time>
   <energy>
    <i name="e_fr_energy">     -3.08816216 </i>
    <i name="e_wo_entrp">     -3.06452513 </i>
    <i name="e_0_energy">     -3.07634364 </i>
   </energy>
  </scstep>
  <scstep>
   <time name="diag">    0.07    0.07</time>
   <time name="diis">    0.07    0.07</time>
   <time name="orth">    0.01    0.01</time>
   <time name="total">    0.78    0.79</time>
   <energy>
    <i name="e_fr_energy">     -2.65534275 </i>
    <i name="e_wo_entrp">     -2.63217358 </i>
    <i name="e_0_energy">     -2.64375817 </i>
   </energy>
  </scstep>
  <scstep>
   <time name="diag">    0.07    0.07</time>
   <time name="diis">    0.08    0.08</time>
   <time name="orth">    0.01    0.01</time>
   <time name="total">    0.72    0.79</time>
   <energy>
    <i name="e_fr_energy">     -1.43171421 </i>
    <i name="e_wo_entrp">     -1.41148585 </i>
    <i name="e_0_energy">     -1.42160003 </i>
   </energy>
  </scstep>
  <scstep>
   <time name="diag">    0.08    0.08</time>
   <time name="diis">    0.08    0.08</time>
   <time name="orth">    0.01    0.01</time>
   <time name="total">    0.78    0.80</time>
   <energy>
    <i name="e_fr_energy">     -1.06999109 </i>
    <i name="e_wo_entrp">     -1.04812916 </i>
    <i name="e_0_energy">     -1.05906012 </i>
   </energy>
  </scstep>
  <scstep>
   <time name="diag">    0.07    0.07</time>
   <time name="diis">    0.07    0.07</time>
   <time name="orth">    0.01    0.01</time>
   <time name="total">    0.79    0.79</time>
   <energy>
    <i name="e_fr_energy">     -1.05183378 </i>
    <i name="e_wo_entrp">     -1.03015826 </i>
    <i name="e_0_energy">     -1.04099602 </i>
   </energy>
  </scstep>
  <scstep>
   <time name="diag">    0.07    0.07</time>
   <time name="diis">    0.07    0.07</time>
   <time name="orth">    0.01    0.01</time>
   <time name="total">    0.78    0.79</time>
   <energy>
    <i name="e_fr_energy">     -1.08685380 </i>
    <i name="e_wo_entrp">     -1.06494945 </i>
    <i name="e_0_energy">     -1.07590162 </i>
   </energy>
  </scstep>
  <scstep>
   <time name="diag">    0.07    0.07</time>
   <time name="diis">    0.07    0.07</time>
   <time name="orth">    0.01    0.01</time>
   <time name="total">    0.79    0.79</time>
   <energy>
    <i name="e_fr_energy">     -1.10638874 </i>
    <i name="e_wo_entrp">     -1.08533737 </i>
    <i name="e_0_energy">     -1.09586306 </i>
   </energy>
  </scstep>
  <scstep>
   <time name="diag">    0.07    0.07</time>
   <time name="diis">    0.07    0.07</time>
   <time name="orth">    0.01    0.01</time>
   <time name="total">    0.78    0.79</time>
   <energy>
    <i name="e_fr_energy">     -1.16191025 </i>
    <i name="e_wo_entrp">     -1.14058125 </i>
    <i name="e_0_energy">     -1.15124575 </i>
   </energy>
  </scstep>
  <scstep>
   <time name="diag">    0.07    0.07</time>
   <time name="diis">    0.07    0.07</time>
   <time name="orth">    0.01    0.01</time>
   <time name="total">    0.78    0.78</time>
   <energy>
    <i name="e_fr_energy">     -1.23297914 </i>
    <i name="e_wo_entrp">     -1.21169648 </i>
    <i name="e_0_energy">     -1.22233781 </i>
   </energy>
  </scstep>
  <scstep>
   <time name="diag">    0.07    0.07</time>
   <time name="diis">    0.07    0.07</time>
   <time name="orth">    0.01    0.01</time>
   <time name="total">    0.78    0.78</time>
   <energy>
    <i name="e_fr_energy">     -1.25350069 </i>
    <i name="e_wo_entrp">     -1.23167268 </i>
    <i name="e_0_energy">     -1.24258669 </i>
   </energy>
  </scstep>
  <scstep>
   <time name="diag">    0.07    0.07</time>
   <time name="diis">    0.07    0.07</time>
   <time name="orth">    0.01    0.01</time>
   <time name="total">    0.78    0.78</time>
   <energy>
    <i name="e_fr_energy">     -1.28251801 </i>
    <i name="e_wo_entrp">     -1.26189439 </i>
    <i name="e_0_energy">     -1.27220620 </i>
   </energy>
  </scstep>
  <scstep>
   <time name="diag">    0.07    0.07</time>
   <time name="diis">    0.08    0.07</time>
   <time name="orth">    0.01    0.01</time>
   <time name="total">    0.78    0.80</time>
   <energy>
    <i name="e_fr_energy">     -1.10532466 </i>
    <i name="e_wo_entrp">     -1.08637006 </i>
    <i name="e_0_energy">     -1.09584736 </i>
   </energy>
  </scstep>
  <scstep>
   <time name="diag">    0.07    0.07</time>
   <time name="diis">    0.07    0.07</time>
   <time name="orth">    0.01    0.01</time>
   <time name="total">    0.78    0.79</time>
   <energy>
    <i name="e_fr_energy">     -1.13516463 </i>
    <i name="e_wo_entrp">     -1.11290495 </i>
    <i name="e_0_energy">     -1.12403479 </i>
   </energy>
  </scstep>
  <scstep>
   <time name="diag">    0.07    0.07</time>
   <time name="diis">    0.08    0.07</time>
   <time name="orth">    0.01    0.01</time>
   <time name="total">    0.79    0.79</time>
   <energy>
    <i name="e_fr_energy">     -1.11781465 </i>
    <i name="e_wo_entrp">     -1.09989949 </i>
    <i name="e_0_energy">     -1.10885707 </i>
   </energy>
  </scstep>
  <scstep>
   <time name="diag">    0.07    0.07</time>
   <time name="diis">    0.07    0.07</time>
   <time name="orth">    0.01    0.01</time>
   <time name="total">    0.78    0.79</time>
   <energy>
    <i name="e_fr_energy">     -1.01134311 </i>
    <i name="e_wo_entrp">     -0.99404951 </i>
    <i name="e_0_energy">     -1.00269631 </i>
   </energy>
  </scstep>
  <scstep>
   <time name="diag">    0.07    0.07</time>
   <time name="diis">    0.07    0.07</time>
   <time name="orth">    0.01    0.01</time>
   <time name="total">    0.78    0.79</time>
   <energy>
    <i name="e_fr_energy">     -0.94794691 </i>
    <i name="e_wo_entrp">     -0.93024687 </i>
    <i name="e_0_energy">     -0.93909689 </i>
   </energy>
  </scstep>
  <scstep>
   <time name="diag">    0.07    0.07</time>
   <time name="diis">    0.07    0.07</time>
   <time name="orth">    0.01    0.01</time>
   <time name="total">    0.78    0.79</time>
   <energy>
    <i name="e_fr_energy">     -0.97315691 </i>
    <i name="e_wo_entrp">     -0.95529628 </i>
    <i name="e_0_energy">     -0.96422659 </i>
   </energy>
  </scstep>
  <scstep>
   <time name="diag">    0.07    0.07</time>
   <time name="diis">    0.08    0.07</time>
   <time name="orth">    0.01    0.01</time>
   <time name="total">    0.79    0.80</time>
   <energy>
    <i name="e_fr_energy">     -0.96528820 </i>
    <i name="e_wo_entrp">     -0.94716125 </i>
    <i name="e_0_energy">     -0.95622473 </i>
   </energy>
  </scstep>
  <scstep>
   <time name="diag">    0.07    0.07</time>
   <time name="diis">    0.08    0.07</time>
   <time name="orth">    0.01    0.01</time>
   <time name="total">    0.79    0.80</time>
   <energy>
    <i name="e_fr_energy">     -0.85449341 </i>
    <i name="e_wo_entrp">     -0.83549546 </i>
    <i name="e_0_energy">     -0.84499443 </i>
   </energy>
  </scstep>
  <scstep>
   <time name="diag">    0.07    0.07</time>
   <time name="diis">    0.07    0.07</time>
   <time name="orth">    0.01    0.01</time>
   <time name="total">    0.78    0.79</time>
   <energy>
    <i name="e_fr_energy">     -0.81811510 </i>
    <i name="e_wo_entrp">     -0.79905207 </i>
    <i name="e_0_energy">     -0.80858358 </i>
   </energy>
  </scstep>
  <scstep>
   <time name="diag">    0.07    0.07</time>
   <time name="diis">    0.07    0.07</time>
   <time name="orth">    0.01    0.01</time>
   <time name="total">    0.78    0.79</time>
   <energy>
    <i name="e_fr_energy">     -0.73351190 </i>
    <i name="e_wo_entrp">     -0.71123382 </i>
    <i name="e_0_energy">     -0.72237286 </i>
   </energy>
  </scstep>
  <scstep>
   <time name="diag">    0.07    0.07</time>
   <time name="diis">    0.07    0.07</time>
   <time name="orth">    0.01    0.01</time>
   <time name="total">    0.78    0.79</time>
   <energy>
    <i name="e_fr_energy">     -0.67431931 </i>
    <i name="e_wo_entrp">     -0.65345449 </i>
    <i name="e_0_energy">     -0.66388690 </i>
   </energy>
  </scstep>
  <scstep>
   <time name="diag">    0.07    0.07</time>
   <time name="diis">    0.07    0.07</time>
   <time name="orth">    0.01    0.01</time>
   <time name="total">    0.78    0.78</time>
   <energy>
    <i name="e_fr_energy">     -0.67430947 </i>
    <i name="e_wo_entrp">     -0.65398590 </i>
    <i name="e_0_energy">     -0.66414769 </i>
   </energy>
  </scstep>
  <scstep>
   <time name="diag">    0.07    0.07</time>
   <time name="diis">    0.07    0.07</time>
   <time name="orth">    0.01    0.01</time>
   <time name="total">    0.78    0.79</time>
   <energy>
    <i name="e_fr_energy">     -0.65853637 </i>
    <i name="e_wo_entrp">     -0.63827502 </i>
    <i name="e_0_energy">     -0.64840570 </i>
   </energy>
  </scstep>
  <scstep>
   <time name="diag">    0.07    0.07</time>
   <time name="diis">    0.07    0.07</time>
   <time name="orth">    0.01    0.01</time>
   <time name="total">    0.78    0.80</time>
   <energy>
    <i name="e_fr_energy">     -0.67651485 </i>
    <i name="e_wo_entrp">     -0.65487962 </i>
    <i name="e_0_energy">     -0.66569723 </i>
   </energy>
  </scstep>
  <scstep>
   <time name="diag">    0.07    0.07</time>
   <time name="diis">    0.07    0.06</time>
   <time name="orth">    0.01    0.01</time>
   <time name="total">    0.78    0.79</time>
   <energy>
    <i name="e_fr_energy">     -0.67744555 </i>
    <i name="e_wo_entrp">     -0.65579155 </i>
    <i name="e_0_energy">     -0.66661855 </i>
   </energy>
  </scstep>
  <scstep>
   <time name="diag">    0.07    0.07</time>
   <time name="diis">    0.07    0.07</time>
   <time name="orth">    0.01    0.01</time>
   <time name="total">    0.78    0.79</time>
   <energy>
    <i name="e_fr_energy">     -0.70815650 </i>
    <i name="e_wo_entrp">     -0.68660959 </i>
    <i name="e_0_energy">     -0.69738304 </i>
   </energy>
  </scstep>
  <scstep>
   <time name="diag">    0.07    0.07</time>
   <time name="diis">    0.07    0.07</time>
   <time name="orth">    0.01    0.01</time>
   <time name="total">    0.79    0.80</time>
   <energy>
    <i name="e_fr_energy">     -0.69389966 </i>
    <i name="e_wo_entrp">     -0.67261373 </i>
    <i name="e_0_energy">     -0.68325670 </i>
   </energy>
  </scstep>
  <scstep>
   <time name="diag">    0.07    0.07</time>
   <time name="diis">    0.06    0.06</time>
   <time name="orth">    0.01    0.01</time>
   <time name="total">    0.78    0.79</time>
   <energy>
    <i name="e_fr_energy">     -0.70613024 </i>
    <i name="e_wo_entrp">     -0.68496661 </i>
    <i name="e_0_energy">     -0.69554843 </i>
   </energy>
  </scstep>
  <scstep>
   <time name="diag">    0.07    0.07</time>
   <time name="diis">    0.06    0.07</time>
   <time name="orth">    0.01    0.01</time>
   <time name="total">    0.78    0.79</time>
   <energy>
    <i name="e_fr_energy">     -0.58828156 </i>
    <i name="e_wo_entrp">     -0.56595847 </i>
    <i name="e_0_energy">     -0.57712001 </i>
   </energy>
  </scstep>
  <scstep>
   <time name="diag">    0.07    0.07</time>
   <time name="diis">    0.07    0.07</time>
   <time name="orth">    0.01    0.01</time>
   <time name="total">    0.78    0.79</time>
   <energy>
    <i name="e_fr_energy">     -0.58241576 </i>
    <i name="e_wo_entrp">     -0.56164969 </i>
    <i name="e_0_energy">     -0.57203272 </i>
   </energy>
  </scstep>
  <scstep>
   <time name="diag">    0.07    0.07</time>
   <time name="diis">    0.07    0.07</time>
   <time name="orth">    0.01    0.01</time>
   <time name="total">    0.78    0.79</time>
   <energy>
    <i name="e_fr_energy">     -0.57119240 </i>
    <i name="e_wo_entrp">     -0.55117542 </i>
    <i name="e_0_energy">     -0.56118391 </i>
   </energy>
  </scstep>
  <scstep>
   <time name="diag">    0.07    0.07</time>
   <time name="diis">    0.07    0.07</time>
   <time name="orth">    0.01    0.01</time>
   <time name="total">    0.78    0.79</time>
   <energy>
    <i name="e_fr_energy">     -0.57564600 </i>
    <i name="e_wo_entrp">     -0.55676443 </i>
    <i name="e_0_energy">     -0.56620522 </i>
   </energy>
  </scstep>
  <scstep>
   <time name="diag">    0.07    0.07</time>
   <time name="diis">    0.07    0.07</time>
   <time name="orth">    0.01    0.01</time>
   <time name="total">    0.78    0.79</time>
   <energy>
    <i name="e_fr_energy">     -0.60798137 </i>
    <i name="e_wo_entrp">     -0.58892758 </i>
    <i name="e_0_energy">     -0.59845448 </i>
   </energy>
  </scstep>
  <scstep>
   <time name="diag">    0.07    0.07</time>
   <time name="diis">    0.07    0.07</time>
   <time name="orth">    0.01    0.01</time>
   <time name="total">    0.57    0.79</time>
   <energy>
    <i name="e_fr_energy">     -0.92521902 </i>
    <i name="e_wo_entrp">     -0.90060681 </i>
    <i name="e_0_energy">     -0.91291292 </i>
   </energy>
  </scstep>
  <scstep>
   <time name="diag">    0.07    0.07</time>
   <time name="diis">    0.06    0.06</time>
   <time name="orth">    0.01    0.01</time>
   <time name="total">    0.78    0.79</time>
   <energy>
    <i name="e_fr_energy">     -0.84551899 </i>
    <i name="e_wo_entrp">     -0.82461370 </i>
    <i name="e_0_energy">     -0.83506635 </i>
   </energy>
  </scstep>
  <scstep>
   <time name="diag">    0.07    0.07</time>
   <time name="diis">    0.08    0.07</time>
   <time name="orth">    0.01    0.01</time>
   <time name="total">    0.78    0.80</time>
   <energy>
    <i name="e_fr_energy">     -0.83506070 </i>
    <i name="e_wo_entrp">     -0.81613379 </i>
    <i name="e_0_energy">     -0.82559724 </i>
   </energy>
  </scstep>
  <scstep>
   <time name="diag">    0.07    0.07</time>
   <time name="diis">    0.06    0.07</time>
   <time name="orth">    0.01    0.01</time>
   <time name="total">    0.78    0.79</time>
   <energy>
    <i name="e_fr_energy">     -0.83561742 </i>
    <i name="e_wo_entrp">     -0.81636022 </i>
    <i name="e_0_energy">     -0.82598882 </i>
   </energy>
  </scstep>
  <scstep>
   <time name="diag">    0.07    0.07</time>
   <time name="diis">    0.07    0.07</time>
   <time name="orth">    0.01    0.01</time>
   <time name="total">    0.79    0.81</time>
   <energy>
    <i name="e_fr_energy">     -0.87948895 </i>
    <i name="e_wo_entrp">     -0.85987781 </i>
    <i name="e_0_energy">     -0.86968338 </i>
   </energy>
  </scstep>
  <scstep>
   <time name="diag">    0.07    0.07</time>
   <time name="diis">    0.07    0.07</time>
   <time name="orth">    0.01    0.01</time>
   <time name="total">    0.72    0.79</time>
   <energy>
    <i name="e_fr_energy">     -0.92117986 </i>
    <i name="e_wo_entrp">     -0.90402904 </i>
    <i name="e_0_energy">     -0.91260445 </i>
   </energy>
  </scstep>
  <scstep>
   <time name="diag">    0.07    0.07</time>
   <time name="diis">    0.06    0.06</time>
   <time name="orth">    0.01    0.01</time>
   <time name="total">    0.78    0.80</time>
   <energy>
    <i name="e_fr_energy">     -0.93290289 </i>
    <i name="e_wo_entrp">     -0.91595450 </i>
    <i name="e_0_energy">     -0.92442870 </i>
   </energy>
  </scstep>
  <scstep>
   <time name="diag">    0.07    0.07</time>
   <time name="diis">    0.07    0.07</time>
   <time name="orth">    0.01    0.01</time>
   <time name="total">    0.78    0.80</time>
   <energy>
    <i name="e_fr_energy">     -0.93615070 </i>
    <i name="e_wo_entrp">     -0.91905731 </i>
    <i name="e_0_energy">     -0.92760401 </i>
   </energy>
  </scstep>
  <scstep>
   <time name="diag">    0.07    0.07</time>
   <time name="diis">    0.06    0.07</time>
   <time name="orth">    0.01    0.01</time>
   <time name="total">    0.76    0.80</time>
   <energy>
    <i name="e_fr_energy">     -0.96721270 </i>
    <i name="e_wo_entrp">     -0.94796665 </i>
    <i name="e_0_energy">     -0.95758967 </i>
   </energy>
  </scstep>
  <scstep>
   <time name="diag">    0.07    0.07</time>
   <time name="diis">    0.08    0.08</time>
   <time name="orth">    0.01    0.01</time>
   <time name="total">    0.79    0.80</time>
   <energy>
    <i name="e_fr_energy">     -0.83129849 </i>
    <i name="e_wo_entrp">     -0.81122378 </i>
    <i name="e_0_energy">     -0.82126114 </i>
   </energy>
  </scstep>
  <scstep>
   <time name="diag">    0.07    0.07</time>
   <time name="diis">    0.07    0.07</time>
   <time name="orth">    0.01    0.01</time>
   <time name="total">    0.78    0.80</time>
   <energy>
    <i name="e_fr_energy">     -1.25092051 </i>
    <i name="e_wo_entrp">     -1.23149548 </i>
    <i name="e_0_energy">     -1.24120800 </i>
   </energy>
  </scstep>
  <scstep>
   <time name="diag">    0.07    0.07</time>
   <time name="diis">    0.07    0.07</time>
   <time name="orth">    0.01    0.01</time>
   <time name="total">    0.78    0.80</time>
   <energy>
    <i name="e_fr_energy">     -1.28561512 </i>
    <i name="e_wo_entrp">     -1.26765241 </i>
    <i name="e_0_energy">     -1.27663377 </i>
   </energy>
  </scstep>
  <scstep>
   <time name="diag">    0.07    0.07</time>
   <time name="diis">    0.07    0.07</time>
   <time name="orth">    0.01    0.01</time>
   <time name="total">    0.78    0.80</time>
   <energy>
    <i name="e_fr_energy">     -1.27816257 </i>
    <i name="e_wo_entrp">     -1.26021428 </i>
    <i name="e_0_energy">     -1.26918843 </i>
   </energy>
  </scstep>
  <scstep>
   <time name="diag">    0.07    0.07</time>
   <time name="diis">    0.07    0.07</time>
   <time name="orth">    0.01    0.01</time>
   <time name="total">    0.76    0.80</time>
   <energy>
    <i name="e_fr_energy">     -1.30781929 </i>
    <i name="e_wo_entrp">     -1.29144123 </i>
    <i name="e_0_energy">     -1.29963026 </i>
   </energy>
  </scstep>
  <scstep>
   <time name="diag">    0.07    0.07</time>
   <time name="diis">    0.07    0.07</time>
   <time name="orth">    0.01    0.01</time>
   <time name="total">    0.77    0.79</time>
   <energy>
    <i name="e_fr_energy">     -1.31955660 </i>
    <i name="e_wo_entrp">     -1.30178085 </i>
    <i name="e_0_energy">     -1.31066873 </i>
   </energy>
  </scstep>
  <scstep>
   <time name="diag">    0.07    0.07</time>
   <time name="diis">    0.07    0.07</time>
   <time name="orth">    0.01    0.01</time>
   <time name="total">    0.78    0.79</time>
   <energy>
    <i name="e_fr_energy">     -0.91865396 </i>
    <i name="e_wo_entrp">     -0.89810137 </i>
    <i name="e_0_energy">     -0.90837767 </i>
   </energy>
  </scstep>
  <scstep>
   <time name="diag">    0.07    0.07</time>
   <time name="diis">    0.07    0.07</time>
   <time name="orth">    0.01    0.01</time>
   <time name="total">    0.78    0.79</time>
   <energy>
    <i name="e_fr_energy">     -0.94477443 </i>
    <i name="e_wo_entrp">     -0.92471547 </i>
    <i name="e_0_energy">     -0.93474495 </i>
   </energy>
  </scstep>
  <scstep>
   <time name="diag">    0.07    0.07</time>
   <time name="diis">    0.07    0.07</time>
   <time name="orth">    0.01    0.01</time>
   <time name="total">    0.77    0.79</time>
   <energy>
    <i name="e_fr_energy">     -1.31916572 </i>
    <i name="e_wo_entrp">     -1.29818544 </i>
    <i name="e_0_energy">     -1.30867558 </i>
   </energy>
  </scstep>
  <scstep>
   <time name="diag">    0.07    0.07</time>
   <time name="diis">    0.07    0.06</time>
   <time name="orth">    0.01    0.01</time>
   <time name="total">    0.78    0.78</time>
   <energy>
    <i name="e_fr_energy">     -1.29180605 </i>
    <i name="e_wo_entrp">     -1.27071143 </i>
    <i name="e_0_energy">     -1.28125874 </i>
   </energy>
  </scstep>
  <scstep>
   <time name="diag">    0.07    0.07</time>
   <time name="diis">    0.07    0.07</time>
   <time name="orth">    0.01    0.01</time>
   <time name="total">    0.79    0.79</time>
   <energy>
    <i name="e_fr_energy">     -0.85255140 </i>
    <i name="e_wo_entrp">     -0.83144721 </i>
    <i name="e_0_energy">     -0.84199931 </i>
   </energy>
  </scstep>
  <scstep>
   <time name="diag">    0.07    0.07</time>
   <time name="diis">    0.08    0.08</time>
   <time name="orth">    0.01    0.01</time>
   <time name="total">    0.79    0.80</time>
   <energy>
    <i name="e_fr_energy">     -0.59782116 </i>
    <i name="e_wo_entrp">     -0.57797494 </i>
    <i name="e_0_energy">     -0.58789805 </i>
   </energy>
  </scstep>
  <scstep>
   <time name="diag">    0.07    0.07</time>
   <time name="diis">    0.07    0.07</time>
   <time name="orth">    0.01    0.01</time>
   <time name="total">    0.79    0.79</time>
   <energy>
    <i name="e_fr_energy">     -0.60291573 </i>
    <i name="e_wo_entrp">     -0.58323569 </i>
    <i name="e_0_energy">     -0.59307571 </i>
   </energy>
  </scstep>
  <scstep>
   <time name="diag">    0.07    0.07</time>
   <time name="diis">    0.08    0.07</time>
   <time name="orth">    0.01    0.01</time>
   <time name="total">    0.79    0.79</time>
   <energy>
    <i name="e_fr_energy">     -0.63233811 </i>
    <i name="e_wo_entrp">     -0.61158407 </i>
    <i name="e_0_energy">     -0.62196109 </i>
   </energy>
  </scstep>
  <scstep>
   <time name="diag">    0.07    0.07</time>
   <time name="diis">    0.08    0.08</time>
   <time name="orth">    0.01    0.01</time>
   <time name="total">    0.79    0.80</time>
   <energy>
    <i name="e_fr_energy">     -0.58589048 </i>
    <i name="e_wo_entrp">     -0.55985844 </i>
    <i name="e_0_energy">     -0.57287446 </i>
   </energy>
  </scstep>
  <scstep>
   <time name="diag">    0.07    0.07</time>
   <time name="diis">    0.07    0.07</time>
   <time name="orth">    0.01    0.01</time>
   <time name="total">    0.78    0.79</time>
   <energy>
    <i name="e_fr_energy">     -0.58009179 </i>
    <i name="e_wo_entrp">     -0.55353877 </i>
    <i name="e_0_energy">     -0.56681528 </i>
   </energy>
  </scstep>
  <scstep>
   <time name="diag">    0.07    0.07</time>
   <time name="diis">    0.07    0.07</time>
   <time name="orth">    0.01    0.01</time>
   <time name="total">    0.79    0.79</time>
   <energy>
    <i name="e_fr_energy">     -0.41178571 </i>
    <i name="e_wo_entrp">     -0.37883701 </i>
    <i name="e_0_energy">     -0.39531136 </i>
   </energy>
  </scstep>
  <scstep>
   <time name="diag">    0.07    0.07</time>
   <time name="diis">    0.07    0.07</time>
   <time name="orth">    0.01    0.01</time>
   <time name="total">    0.72    0.79</time>
   <energy>
    <i name="e_fr_energy">     -0.40671746 </i>
    <i name="e_wo_entrp">     -0.37406939 </i>
    <i name="e_0_energy">     -0.39039342 </i>
   </energy>
  </scstep>
  <scstep>
   <time name="diag">    0.07    0.07</time>
   <time name="diis">    0.07    0.07</time>
   <time name="orth">    0.01    0.01</time>
   <time name="total">    0.78    0.79</time>
   <energy>
    <i name="e_fr_energy">     -0.41072685 </i>
    <i name="e_wo_entrp">     -0.37776614 </i>
    <i name="e_0_energy">     -0.39424649 </i>
   </energy>
  </scstep>
  <scstep>
   <time name="diag">    0.07    0.07</time>
   <time name="diis">    0.07    0.07</time>
   <time name="orth">    0.01    0.01</time>
   <time name="total">    0.62    0.79</time>
   <energy>
    <i name="e_fr_energy">     -0.43436690 </i>
    <i name="e_wo_entrp">     -0.40022823 </i>
    <i name="e_0_energy">     -0.41729757 </i>
   </energy>
  </scstep>
  <scstep>
   <time name="diag">    0.07    0.07</time>
   <time name="diis">    0.06    0.07</time>
   <time name="orth">    0.01    0.01</time>
   <time name="total">    0.78    0.79</time>
   <energy>
    <i name="e_fr_energy">     -0.43531909 </i>
    <i name="e_wo_entrp">     -0.40202638 </i>
    <i name="e_0_energy">     -0.41867274 </i>
   </energy>
  </scstep>
  <scstep>
   <time name="diag">    0.07    0.07</time>
   <time name="diis">    0.05    0.05</time>
   <time name="orth">    0.01    0.01</time>
   <time name="total">    0.76    0.86</time>
   <energy>
    <i name="e_fr_energy">     -0.42281193 </i>
    <i name="e_wo_entrp">     -0.39094619 </i>
    <i name="e_0_energy">     -0.40687906 </i>
   </energy>
  </scstep>
  <scstep>
   <time name="diag">    0.07    0.07</time>
   <time name="diis">    0.08    0.07</time>
   <time name="orth">    0.01    0.01</time>
   <time name="total">    0.74    0.79</time>
   <energy>
    <i name="e_fr_energy">     -0.40027569 </i>
    <i name="e_wo_entrp">     -0.36763842 </i>
    <i name="e_0_energy">     -0.38395705 </i>
   </energy>
  </scstep>
  <scstep>
   <time name="diag">    0.07    0.07</time>
   <time name="diis">    0.07    0.07</time>
   <time name="orth">    0.01    0.01</time>
   <time name="total">    0.74    0.79</time>
   <energy>
    <i name="e_fr_energy">     -0.39035174 </i>
    <i name="e_wo_entrp">     -0.36035599 </i>
    <i name="e_0_energy">     -0.37535387 </i>
   </energy>
  </scstep>
  <scstep>
   <time name="diag">    0.07    0.07</time>
   <time name="diis">    0.08    0.07</time>
   <time name="orth">    0.01    0.01</time>
   <time name="total">    0.79    0.80</time>
   <energy>
    <i name="e_fr_energy">     -0.38774622 </i>
    <i name="e_wo_entrp">     -0.35726628 </i>
    <i name="e_0_energy">     -0.37250625 </i>
   </energy>
  </scstep>
  <scstep>
   <time name="diag">    0.07    0.07</time>
   <time name="diis">    0.07    0.07</time>
   <time name="orth">    0.01    0.01</time>
   <time name="total">    0.75    0.80</time>
   <energy>
    <i name="e_fr_energy">     -0.38970946 </i>
    <i name="e_wo_entrp">     -0.35914725 </i>
    <i name="e_0_energy">     -0.37442835 </i>
   </energy>
  </scstep>
  <scstep>
   <time name="diag">    0.07    0.07</time>
   <time name="diis">    0.07    0.07</time>
   <time name="orth">    0.01    0.01</time>
   <time name="total">    0.78    0.79</time>
   <energy>
    <i name="e_fr_energy">     -0.34660650 </i>
    <i name="e_wo_entrp">     -0.32136376 </i>
    <i name="e_0_energy">     -0.33398513 </i>
   </energy>
  </scstep>
  <scstep>
   <time name="diag">    0.07    0.07</time>
   <time name="diis">    0.06    0.07</time>
   <time name="orth">    0.01    0.01</time>
   <time name="total">    0.78    0.79</time>
   <energy>
    <i name="e_fr_energy">     -0.38169294 </i>
    <i name="e_wo_entrp">     -0.35671761 </i>
    <i name="e_0_energy">     -0.36920528 </i>
   </energy>
  </scstep>
  <scstep>
   <time name="diag">    0.07    0.07</time>
   <time name="diis">    0.06    0.07</time>
   <time name="orth">    0.01    0.01</time>
   <time name="total">    0.78    0.79</time>
   <energy>
    <i name="e_fr_energy">     -0.37135232 </i>
    <i name="e_wo_entrp">     -0.34573428 </i>
    <i name="e_0_energy">     -0.35854330 </i>
   </energy>
  </scstep>
  <scstep>
   <time name="diag">    0.07    0.07</time>
   <time name="diis">    0.06    0.07</time>
   <time name="orth">    0.01    0.01</time>
   <time name="total">    0.78    0.79</time>
   <energy>
    <i name="e_fr_energy">     -0.37608612 </i>
    <i name="e_wo_entrp">     -0.35074758 </i>
    <i name="e_0_energy">     -0.36341685 </i>
   </energy>
  </scstep>
  <scstep>
   <time name="diag">    0.07    0.07</time>
   <time name="diis">    0.07    0.07</time>
   <time name="orth">    0.01    0.01</time>
   <time name="total">    0.78    0.79</time>
   <energy>
    <i name="e_fr_energy">     -0.37835458 </i>
    <i name="e_wo_entrp">     -0.35293854 </i>
    <i name="e_0_energy">     -0.36564656 </i>
   </energy>
  </scstep>
  <scstep>
   <time name="diag">    0.07    0.07</time>
   <time name="diis">    0.07    0.07</time>
   <time name="orth">    0.01    0.01</time>
   <time name="total">    0.78    0.79</time>
   <energy>
    <i name="e_fr_energy">     -0.36040239 </i>
    <i name="e_wo_entrp">     -0.33407039 </i>
    <i name="e_0_energy">     -0.34723639 </i>
   </energy>
  </scstep>
  <scstep>
   <time name="diag">    0.07    0.07</time>
   <time name="diis">    0.08    0.08</time>
   <time name="orth">    0.01    0.01</time>
   <time name="total">    0.79    0.80</time>
   <energy>
    <i name="e_fr_energy">     -0.33654904 </i>
    <i name="e_wo_entrp">     -0.30483433 </i>
    <i name="e_0_energy">     -0.32069168 </i>
   </energy>
  </scstep>
  <scstep>
   <time name="diag">    0.07    0.07</time>
   <time name="diis">    0.07    0.07</time>
   <time name="orth">    0.01    0.01</time>
   <time name="total">    0.78    0.79</time>
   <energy>
    <i name="e_fr_energy">     -0.36148362 </i>
    <i name="e_wo_entrp">     -0.33143795 </i>
    <i name="e_0_energy">     -0.34646078 </i>
   </energy>
  </scstep>
  <scstep>
   <time name="diag">    0.07    0.07</time>
   <time name="diis">    0.07    0.08</time>
   <time name="orth">    0.01    0.01</time>
   <time name="total">    0.79    0.79</time>
   <energy>
    <i name="e_fr_energy">     -0.37224517 </i>
    <i name="e_wo_entrp">     -0.33945905 </i>
    <i name="e_0_energy">     -0.35585211 </i>
   </energy>
  </scstep>
  <scstep>
   <time name="diag">    0.07    0.07</time>
   <time name="diis">    0.07    0.07</time>
   <time name="orth">    0.01    0.01</time>
   <time name="total">    0.78    0.79</time>
   <energy>
    <i name="e_fr_energy">     -0.37032415 </i>
    <i name="e_wo_entrp">     -0.33903798 </i>
    <i name="e_0_energy">     -0.35468106 </i>
   </energy>
  </scstep>
  <scstep>
   <time name="diag">    0.07    0.07</time>
   <time name="diis">    0.07    0.07</time>
   <time name="orth">    0.01    0.01</time>
   <time name="total">    0.75    0.80</time>
   <energy>
    <i name="e_fr_energy">     -0.37336109 </i>
    <i name="e_wo_entrp">     -0.34399664 </i>
    <i name="e_0_energy">     -0.35867886 </i>
   </energy>
  </scstep>
  <scstep>
   <time name="diag">    0.07    0.07</time>
   <time name="diis">    0.07    0.07</time>
   <time name="orth">    0.01    0.01</time>
   <time name="total">    0.78    0.79</time>
   <energy>
    <i name="e_fr_energy">     -0.38214205 </i>
    <i name="e_wo_entrp">     -0.35331455 </i>
    <i name="e_0_energy">     -0.36772830 </i>
   </energy>
  </scstep>
  <scstep>
   <time name="diag">    0.07    0.07</time>
   <time name="diis">    0.07    0.07</time>
   <time name="orth">    0.01    0.01</time>
   <time name="total">    0.77    0.79</time>
   <energy>
    <i name="e_fr_energy">     -0.38385209 </i>
    <i name="e_wo_entrp">     -0.35737395 </i>
    <i name="e_0_energy">     -0.37061302 </i>
   </energy>
  </scstep>
  <scstep>
   <time name="diag">    0.07    0.07</time>
   <time name="diis">    0.07    0.07</time>
   <time name="orth">    0.01    0.01</time>
   <time name="total">    0.78    0.79</time>
   <energy>
    <i name="e_fr_energy">     -0.35188184 </i>
    <i name="e_wo_entrp">     -0.32151069 </i>
    <i name="e_0_energy">     -0.33669627 </i>
   </energy>
  </scstep>
  <scstep>
   <time name="diag">    0.07    0.07</time>
   <time name="diis">    0.07    0.07</time>
   <time name="orth">    0.01    0.01</time>
   <time name="total">    0.78    0.79</time>
   <energy>
    <i name="e_fr_energy">     -0.36216227 </i>
    <i name="e_wo_entrp">     -0.33320204 </i>
    <i name="e_0_energy">     -0.34768216 </i>
   </energy>
  </scstep>
  <scstep>
   <time name="diag">    0.07    0.07</time>
   <time name="diis">    0.07    0.07</time>
   <time name="orth">    0.01    0.01</time>
   <time name="total">    0.78    0.79</time>
   <energy>
    <i name="e_fr_energy">     -0.36333531 </i>
    <i name="e_wo_entrp">     -0.33421252 </i>
    <i name="e_0_energy">     -0.34877392 </i>
   </energy>
  </scstep>
[...]
   <v>      -0.00014608      -0.00360514       0.00620889 </v>
   <v>      -0.00303373      -0.01635721       0.05989912 </v>
   <v>       0.00592389       0.01389360      -0.03871435 </v>
   <v>       0.05724866       0.04364694       0.02970853 </v>
   <v>       0.04145803       0.00417996       0.02704524 </v>
  </varray>
  <varray name="stress" >
   <v>      -2.36097992       0.00694629      -0.00177052 </v>
   <v>       0.00694640      -0.66436268       0.03267929 </v>
   <v>      -0.00177005       0.03267935       2.76527158 </v>
  </varray>
  <energy>
   <i name="e_fr_energy">    -41.44250639 </i>
   <i name="e_wo_entrp">    -41.43557710 </i>
   <i name="e_0_energy">     -0.01385858 </i>
  </energy>
  <time name="totalsc">    3.46    3.47</time>
 </calculation>
 <calculation>
  <scstep>
   <time name="dav">    0.28    0.29</time>
   <time name="total">    0.93    0.93</time>
   <energy>
    <i name="alphaZ">    284.53691334 </i>
    <i name="ewald">  -3608.25251156 </i>
    <i name="hartreedc">   -574.44389129 </i>
    <i name="XCdc">    133.47776457 </i>
    <i name="pawpsdc">   4251.98667769 </i>
    <i name="pawaedc">  -4186.29720279 </i>
    <i name="eentropy">     -0.01385483 </i>
    <i name="bandstr">    -56.97325750 </i>
    <i name="atom">   3714.53685730 </i>
    <i name="e_fr_energy">    -41.44250507 </i>
    <i name="e_wo_entrp">    -41.42865024 </i>
    <i name="e_0_energy">    -41.43557765 </i>
   </energy>
  </scstep>
  <scstep>
   <time name="diag">    0.07    0.07</time>
   <time name="diis">    0.05    0.05</time>
   <time name="orth">    0.01    0.01</time>
   <time name="total">    0.75    0.75</time>
   <energy>
    <i name="alphaZ">    284.53691334 </i>
    <i name="ewald">  -3608.25251156 </i>
    <i name="hartreedc">   -574.44376405 </i>
    <i name="XCdc">    133.47776010 </i>
    <i name="pawpsdc">   4251.96186452 </i>
    <i name="pawaedc">  -4186.27235228 </i>
    <i name="eentropy">     -0.01385403 </i>
    <i name="bandstr">    -56.97341878 </i>
    <i name="atom">   3714.53685730 </i>
    <i name="e_fr_energy">    -41.44250543 </i>
    <i name="e_wo_entrp">    -41.42865140 </i>
    <i name="e_0_energy">    -41.43557841 </i>
   </energy>
  </scstep>
  <structure>
   <crystal>
    <varray name="basis" >
     <v>       4.20699626       0.00000000       0.00000000 </v>
     <v>       0.00000000       4.20699626       0.00000000 </v>
     <v>       0.00000000       0.00000000       4.20699626 </v>
    </varray>
    <i name="volume">     74.45885898 </i>
    <varray name="rec_basis" >
     <v>       0.23769928       0.00000000       0.00000000 </v>
     <v>       0.00000000       0.23769928       0.00000000 </v>
     <v>       0.00000000       0.00000000       0.23769928 </v>
    </varray>
   </crystal>
   <varray name="positions" >
    <v>       0.00033000       0.99991000       0.00043000 </v>
    <v>       0.50102000       0.49984000       0.49984000 </v>
    <v>       0.00106000       0.50051000       0.49969000 </v>
    <v>       0.50036000       0.49969000       0.99969000 </v>
    <v>       0.50016000       0.99872000       0.49884000 </v>
    <v>       0.49962000       0.99932000       0.00021000 </v>
    <v>       0.99939000       0.99905000       0.50098000 </v>
    <v>       0.99985000       0.50005000       0.99905000 </v>
   </varray>
  </structure>
  <varray name="forces" >
   <v>      -0.04200962       0.03049383      -0.08951284 </v>
   <v>      -0.09414783      -0.03174520       0.00832553 </v>
   <v>       0.03467692      -0.04051751      -0.00291269 </v>
   <v>      -0.00013561      -0.00358912       0.00619755 </v>
   <v>      -0.00307146      -0.01640105       0.05990726 </v>
   <v>       0.00595100       0.01389906      -0.03871257 </v>
   <v>       0.05727163       0.04369520       0.02964807 </v>
   <v>       0.04146498       0.00416479       0.02705970 </v>
  </varray>
  <varray name="stress" >
   <v>      -2.30482216       0.00691148      -0.00177655 </v>
   <v>       0.00691144      -0.71148173       0.03269537 </v>
   <v>      -0.00177677       0.03269604       2.73431278 </v>
  </varray>
  <energy>
   <i name="e_fr_energy">    -41.44250543 </i>
   <i name="e_wo_entrp">    -41.43557841 </i>
   <i name="e_0_energy">     -0.01385403 </i>
  </energy>
  <time name="totalsc">    3.42    3.43</time>
 </calculation>
 <calculation>
  <scstep>
   <time name="dav">    0.27    0.27</time>
   <time name="total">    0.91    0.91</time>
   <energy>
    <i name="alphaZ">    284.53718904 </i>
    <i name="ewald">  -3608.25367696 </i>
    <i name="hartreedc">   -574.44378527 </i>
    <i name="XCdc">    133.47780823 </i>
    <i name="pawpsdc">   4251.95383930 </i>
    <i name="pawaedc">  -4186.26431016 </i>
    <i name="eentropy">     -0.01385489 </i>
    <i name="bandstr">    -56.97257204 </i>
    <i name="atom">   3714.53685730 </i>
    <i name="e_fr_energy">    -41.44250545 </i>
    <i name="e_wo_entrp">    -41.42865056 </i>
    <i name="e_0_energy">    -41.43557801 </i>
   </energy>
  </scstep>
  <scstep>
   <time name="diag">    0.07    0.07</time>
   <time name="diis">    0.04    0.05</time>
   <time name="orth">    0.01    0.01</time>
   <time name="total">    0.75    0.75</time>
   <energy>
    <i name="alphaZ">    284.53718904 </i>
    <i name="ewald">  -3608.25367696 </i>
    <i name="hartreedc">   -574.44334139 </i>
    <i name="XCdc">    133.47777622 </i>
    <i name="pawpsdc">   4251.93711976 </i>
    <i name="pawaedc">  -4186.24756795 </i>
    <i name="eentropy">     -0.01385253 </i>
    <i name="bandstr">    -56.97300932 </i>
    <i name="atom">   3714.53685730 </i>
    <i name="e_fr_energy">    -41.44250582 </i>
    <i name="e_wo_entrp">    -41.42865329 </i>
    <i name="e_0_energy">    -41.43557956 </i>
   </energy>
  </scstep>
  <structure>
   <crystal>
    <varray name="basis" >
     <v>       4.20699490       0.00000000       0.00000000 </v>
     <v>       0.00000000       4.20699490       0.00000000 </v>
     <v>       0.00000000       0.00000000       4.20699490 </v>
    </varray>
    <i name="volume">     74.45878683 </i>
    <varray name="rec_basis" >
     <v>       0.23769936       0.00000000       0.00000000 </v>
     <v>       0.00000000       0.23769936       0.00000000 </v>
     <v>       0.00000000       0.00000000       0.23769936 </v>
    </varray>
   </crystal>
   <varray name="positions" >
    <v>       0.00033000       0.99991000       0.00043000 </v>
    <v>       0.50102000       0.49984000       0.49984000 </v>
    <v>       0.00106000       0.50051000       0.49969000 </v>
    <v>       0.50036000       0.49969000       0.99969000 </v>
    <v>       0.50016000       0.99872000       0.49884000 </v>
    <v>       0.49962000       0.99932000       0.00021000 </v>
    <v>       0.99939000       0.99905000       0.50098000 </v>
    <v>       0.99985000       0.50005000       0.99905000 </v>
   </varray>
  </structure>
  <varray name="forces" >
   <v>      -0.04201241       0.03049305      -0.08951027 </v>
   <v>      -0.09415369      -0.03174216       0.00832604 </v>
   <v>       0.03468018      -0.04051845      -0.00291506 </v>
   <v>      -0.00013711      -0.00358783       0.00619664 </v>
   <v>      -0.00307211      -0.01640701       0.05990687 </v>
   <v>       0.00595388       0.01390019      -0.03871194 </v>
   <v>       0.05727414       0.04369849       0.02964716 </v>
   <v>       0.04146712       0.00416372       0.02706056 </v>
  </varray>
  <varray name="stress" >
   <v>      -2.29424796       0.00691579      -0.00177647 </v>
   <v>       0.00691512      -0.71921056       0.03269484 </v>
   <v>      -0.00177632       0.03269437       2.72897558 </v>
  </varray>
  <energy>
   <i name="e_fr_energy">    -41.44250582 </i>
   <i name="e_wo_entrp">    -41.43557956 </i>
   <i name="e_0_energy">     -0.01385253 </i>
  </energy>
  <time name="totalsc">    3.39    3.41</time>
 </calculation>
 <calculation>
  <scstep>
   <time name="dav">    0.44    0.44</time>
   <time name="total">    1.08    1.08</time>
   <energy>
    <i name="alphaZ">    450.09317270 </i>
    <i name="ewald">  -4204.21443528 </i>
    <i name="hartreedc">   -669.32171649 </i>
    <i name="XCdc">    165.31040764 </i>
    <i name="pawpsdc">   4251.93160668 </i>
    <i name="pawaedc">  -4186.24204943 </i>
    <i name="eentropy">     -0.00456558 </i>
    <i name="bandstr">    409.58464175 </i>
    <i name="atom">   3714.53685730 </i>
    <i name="e_fr_energy">    -68.32608072 </i>
    <i name="e_wo_entrp">    -68.32151514 </i>
    <i name="e_0_energy">    -68.32379793 </i>
   </energy>
  </scstep>
  <scstep>
   <time name="diag">    0.07    0.07</time>
   <time name="diis">    0.10    0.10</time>
   <time name="orth">    0.01    0.01</time>
   <time name="total">    0.82    0.82</time>
   <energy>
    <i name="e_fr_energy">    -46.41340297 </i>
    <i name="e_wo_entrp">    -46.40865861 </i>
    <i name="e_0_energy">    -46.41103079 </i>
   </energy>
  </scstep>
  <scstep>
   <time name="diag">    0.07    0.07</time>
   <time name="diis">    0.10    0.10</time>
   <time name="orth">    0.01    0.01</time>
   <time name="total">    0.78    0.82</time>
   <energy>
    <i name="e_fr_energy">    -23.82292510 </i>
    <i name="e_wo_entrp">    -23.81421612 </i>
    <i name="e_0_energy">    -23.81857061 </i>
   </energy>
  </scstep>
  <scstep>
   <time name="diag">    0.07    0.07</time>
   <time name="diis">    0.10    0.10</time>
   <time name="orth">    0.01    0.01</time>
   <time name="total">    0.82    0.82</time>
   <energy>
    <i name="e_fr_energy">    -23.73282839 </i>
    <i name="e_wo_entrp">    -23.72280796 </i>
    <i name="e_0_energy">    -23.72781818 </i>
   </energy>
  </scstep>
  <scstep>
   <time name="diag">    0.07    0.07</time>
   <time name="diis">    0.10    0.10</time>
   <time name="orth">    0.01    0.01</time>
   <time name="total">    0.82    0.83</time>
   <energy>
    <i name="e_fr_energy">    -23.64027286 </i>
    <i name="e_wo_entrp">    -23.63125311 </i>
    <i name="e_0_energy">    -23.63576298 </i>
   </energy>
  </scstep>
  <scstep>
   <time name="diag">    0.07    0.07</time>
   <time name="diis">    0.11    0.11</time>
   <time name="orth">    0.01    0.01</time>
   <time name="total">    0.82    0.83</time>
   <energy>
    <i name="e_fr_energy">    -23.62734441 </i>
    <i name="e_wo_entrp">    -23.61746543 </i>
    <i name="e_0_energy">    -23.62240492 </i>
   </energy>
  </scstep>
  <scstep>
   <time name="diag">    0.07    0.07</time>
   <time name="diis">    0.10    0.10</time>
   <time name="orth">    0.01    0.01</time>
   <time name="total">    0.81    0.82</time>
   <energy>
    <i name="e_fr_energy">    -23.59046791 </i>
    <i name="e_wo_entrp">    -23.58228333 </i>
    <i name="e_0_energy">    -23.58637562 </i>
   </energy>
  </scstep>
  <scstep>
   <time name="diag">    0.07    0.07</time>
   <time name="diis">    0.10    0.10</time>
   <time name="orth">    0.01    0.01</time>
   <time name="total">    0.82    0.83</time>
   <energy>
    <i name="e_fr_energy">    -23.54542065 </i>
    <i name="e_wo_entrp">    -23.53739671 </i>
    <i name="e_0_energy">    -23.54140868 </i>
   </energy>
  </scstep>
  <scstep>
   <time name="diag">    0.07    0.07</time>
   <time name="diis">    0.10    0.10</time>
   <time name="orth">    0.01    0.01</time>
   <time name="total">    0.82    0.82</time>
   <energy>
    <i name="e_fr_energy">    -23.54451702 </i>
    <i name="e_wo_entrp">    -23.53648594 </i>
    <i name="e_0_energy">    -23.54050148 </i>
   </energy>
  </scstep>
  <scstep>
   <time name="diag">    0.07    0.07</time>
   <time name="diis">    0.10    0.11</time>
   <time name="orth">    0.01    0.01</time>
   <time name="total">    0.82    0.82</time>
   <energy>
    <i name="e_fr_energy">    -23.54544492 </i>
    <i name="e_wo_entrp">    -23.53754666 </i>
    <i name="e_0_energy">    -23.54149579 </i>
   </energy>
  </scstep>
  <scstep>
   <time name="diag">    0.07    0.07</time>
   <time name="diis">    0.10    0.10</time>
   <time name="orth">    0.01    0.01</time>
   <time name="total">    0.82    0.82</time>
   <energy>
    <i name="e_fr_energy">    -23.55026797 </i>
    <i name="e_wo_entrp">    -23.54330902 </i>
    <i name="e_0_energy">    -23.54678850 </i>
   </energy>
  </scstep>
  <scstep>
   <time name="diag">    0.07    0.07</time>
   <time name="diis">    0.10    0.10</time>
   <time name="orth">    0.01    0.01</time>
   <time name="total">    0.82    0.83</time>
   <energy>
    <i name="e_fr_energy">    -23.55138980 </i>
    <i name="e_wo_entrp">    -23.54481777 </i>
    <i name="e_0_energy">    -23.54810378 </i>
   </energy>
  </scstep>
  <scstep>
   <time name="diag">    0.07    0.07</time>
   <time name="diis">    0.10    0.10</time>
   <time name="orth">    0.01    0.01</time>
   <time name="total">    0.82    0.82</time>
   <energy>
    <i name="e_fr_energy">    -23.55218332 </i>
    <i name="e_wo_entrp">    -23.54582890 </i>
    <i name="e_0_energy">    -23.54900611 </i>
   </energy>
  </scstep>
  <scstep>
   <time name="diag">    0.07    0.07</time>
   <time name="diis">    0.10    0.10</time>
   <time name="orth">    0.01    0.01</time>
   <time name="total">    0.82    0.82</time>
   <energy>
    <i name="e_fr_energy">    -23.55374968 </i>
    <i name="e_wo_entrp">    -23.54745481 </i>
    <i name="e_0_energy">    -23.55060224 </i>
   </energy>
  </scstep>
  <scstep>
   <time name="diag">    0.07    0.07</time>
   <time name="diis">    0.10    0.10</time>
   <time name="orth">    0.01    0.01</time>
   <time name="total">    0.82    0.82</time>
   <energy>
    <i name="e_fr_energy">    -23.55414675 </i>
    <i name="e_wo_entrp">    -23.54775091 </i>
    <i name="e_0_energy">    -23.55094883 </i>
   </energy>
  </scstep>
  <scstep>
   <time name="diag">    0.07    0.07</time>
   <time name="diis">    0.10    0.10</time>
   <time name="orth">    0.01    0.01</time>
   <time name="total">    0.82    1.35</time>
   <energy>
    <i name="e_fr_energy">    -23.55466442 </i>
    <i name="e_wo_entrp">    -23.54805719 </i>
    <i name="e_0_energy">    -23.55136081 </i>
   </energy>
  </scstep>
  <scstep>
   <time name="diag">    0.07    0.07</time>
   <time name="diis">    0.10    0.10</time>
   <time name="orth">    0.01    0.01</time>
   <time name="total">    0.82    0.82</time>
   <energy>
    <i name="e_fr_energy">    -23.55473848 </i>
    <i name="e_wo_entrp">    -23.54816766 </i>
    <i name="e_0_energy">    -23.55145307 </i>
   </energy>
  </scstep>
  <scstep>
   <time name="diag">    0.07    0.07</time>
   <time name="diis">    0.10    0.10</time>
   <time name="orth">    0.01    0.01</time>
   <time name="total">    0.82    0.82</time>
   <energy>
    <i name="e_fr_energy">    -23.55477199 </i>
    <i name="e_wo_entrp">    -23.54824813 </i>
    <i name="e_0_energy">    -23.55151006 </i>
   </energy>
  </scstep>
  <scstep>
   <time name="diag">    0.07    0.07</time>
   <time name="diis">    0.10    0.10</time>
   <time name="orth">    0.01    0.01</time>
   <time name="total">    0.81    0.82</time>
   <energy>
    <i name="e_fr_energy">    -23.55487381 </i>
    <i name="e_wo_entrp">    -23.54826982 </i>
    <i name="e_0_energy">    -23.55157182 </i>
   </energy>
  </scstep>
  <scstep>
   <time name="diag">    0.07    0.07</time>
   <time name="diis">    0.10    0.10</time>
   <time name="orth">    0.01    0.01</time>
   <time name="total">    0.82    0.82</time>
   <energy>
    <i name="e_fr_energy">    -23.55495072 </i>
    <i name="e_wo_entrp">    -23.54832297 </i>
    <i name="e_0_energy">    -23.55163685 </i>
   </energy>
  </scstep>
  <scstep>
   <time name="diag">    0.07    0.07</time>
   <time name="diis">    0.10    0.10</time>
   <time name="orth">    0.01    0.01</time>
   <time name="total">    0.80    1.00</time>
   <energy>
    <i name="e_fr_energy">    -23.55501718 </i>
    <i name="e_wo_entrp">    -23.54838829 </i>
    <i name="e_0_energy">    -23.55170273 </i>
   </energy>
  </scstep>
  <scstep>
   <time name="diag">    0.07    0.07</time>
   <time name="diis">    0.08    0.08</time>
   <time name="orth">    0.01    0.01</time>
   <time name="total">    0.61    0.61</time>
   <energy>
    <i name="e_fr_energy">    -23.55504256 </i>
    <i name="e_wo_entrp">    -23.54840652 </i>
    <i name="e_0_energy">    -23.55172454 </i>
   </energy>
  </scstep>
  <scstep>
   <time name="diag">    0.07    0.07</time>
   <time name="diis">    0.10    0.10</time>
   <time name="orth">    0.01    0.01</time>
   <time name="total">    0.82    0.82</time>
   <energy>
    <i name="e_fr_energy">    -23.55514736 </i>
    <i name="e_wo_entrp">    -23.54845627 </i>
    <i name="e_0_energy">    -23.55180181 </i>
   </energy>
  </scstep>
  <scstep>
   <time name="diag">    0.07    0.07</time>
   <time name="diis">    0.10    0.10</time>
   <time name="orth">    0.01    0.01</time>
   <time name="total">    0.82    0.82</time>
   <energy>
    <i name="e_fr_energy">    -23.55522749 </i>
    <i name="e_wo_entrp">    -23.54851418 </i>
    <i name="e_0_energy">    -23.55187083 </i>
   </energy>
  </scstep>
  <scstep>
   <time name="diag">    0.07    0.07</time>
   <time name="diis">    0.08    0.08</time>
   <time name="orth">    0.01    0.01</time>
   <time name="total">    0.78    0.79</time>
   <energy>
    <i name="alphaZ">    450.09317270 </i>
    <i name="ewald">  -4204.21443528 </i>
    <i name="hartreedc">   -424.27574246 </i>
    <i name="XCdc">    149.10447167 </i>
    <i name="pawpsdc">   7323.27690403 </i>
    <i name="pawaedc">  -7266.29832391 </i>
    <i name="eentropy">     -0.00671666 </i>
    <i name="bandstr">    234.22858628 </i>
    <i name="atom">   3714.53685730 </i>
    <i name="e_fr_energy">    -23.55522634 </i>
    <i name="e_wo_entrp">    -23.54850968 </i>
    <i name="e_0_energy">    -23.55186801 </i>
   </energy>
  </scstep>
  <structure>
   <crystal>
    <varray name="basis" >
     <v>       3.61064000       0.00000000       0.00000000 </v>
     <v>       0.00000000       3.61064000       0.00000000 </v>
     <v>       0.00000000       0.00000000       3.61064000 </v>
    </varray>
    <i name="volume">     47.07090707 </i>
    <varray name="rec_basis" >
     <v>       0.27695921       0.00000000       0.00000000 </v>
     <v>       0.00000000       0.27695921       0.00000000 </v>
     <v>       0.00000000       0.00000000       0.27695921 </v>
    </varray>
   </crystal>
   <varray name="positions" >
    <v>       0.00033000       0.99991000       0.00043000 </v>
    <v>       0.50102000       0.49984000       0.49984000 </v>
    <v>       0.00106000       0.50051000       0.49969000 </v>
    <v>       0.50036000       0.49969000       0.99969000 </v>
    <v>       0.50016000       0.99872000       0.49884000 </v>
    <v>       0.49962000       0.99932000       0.00021000 </v>
    <v>       0.99939000       0.99905000       0.50098000 </v>
    <v>       0.99985000       0.50005000       0.99905000 </v>
   </varray>
  </structure>
  <varray name="forces" >
   <v>      -0.12332584       0.09228067       0.06922004 </v>
   <v>      -0.10257300      -0.34093174      -0.02710994 </v>
   <v>       0.06160087      -0.14391506      -0.06345644 </v>
   <v>      -0.06317311      -0.02003081       0.02422049 </v>
   <v>      -0.09056842       0.21015307       0.16175125 </v>
   <v>       0.12902974       0.04338352      -0.17330691 </v>
   <v>       0.10977085       0.16428366      -0.04500733 </v>
   <v>       0.07923890      -0.00522331       0.05368885 </v>
  </varray>
  <varray name="stress" >
   <v>    3189.29086972      -0.16209622      -0.15640137 </v>
   <v>      -0.16209363    3187.70330533       0.03472216 </v>
   <v>      -0.15640137       0.03471912    3187.82378220 </v>
  </varray>
  <energy>
   <i name="e_fr_energy">    -23.55522634 </i>
   <i name="e_wo_entrp">    -23.55186801 </i>
   <i name="e_0_energy">     -0.00671666 </i>
  </energy>
