unknown system                          
           1
     5.651727    0.000000    0.000000
     0.000000    5.651727    0.000000
     0.000000    0.000000    5.651727
   Ir   O 
   2   6
Direct configuration=     1
   0.00033000  0.99991000  0.00043000
   0.50102000  0.49984000  0.49984000
   0.00106000  0.50051000  0.49969000
   0.50036000  0.49969000  0.99969000
   0.50016000  0.99872000  0.49884000
   0.49962000  0.99932000  0.00021000
   0.99939000  0.99905000  0.50098000
   0.99985000  0.50005000  0.99905000
unknown system                          
           1
     4.460985    0.000000    0.000000
     0.000000    4.460985    0.000000
     0.000000    0.000000    4.460985
   Ir   O 
   2   6
Direct configuration=     2
   0.00033000  0.99991000  0.00043000
   0.50102000  0.49984000  0.49984000
   0.00106000  0.50051000  0.49969000
   0.50036000  0.49969000  0.99969000
   0.50016000  0.99872000  0.49884000
   0.49962000  0.99932000  0.00021000
   0.99939000  0.99905000  0.50098000
   0.99985000  0.50005000  0.99905000
unknown system                          
           1
     4.318315    0.000000    0.000000
     0.000000    4.318315    0.000000
     0.000000    0.000000    4.318315
   Ir   O 
   2   6
Direct configuration=     3
   0.00033000  0.99991000  0.00043000
   0.50102000  0.49984000  0.49984000
   0.00106000  0.50051000  0.49969000
   0.50036000  0.49969000  0.99969000
   0.50016000  0.99872000  0.49884000
   0.49962000  0.99932000  0.00021000
   0.99939000  0.99905000  0.50098000
   0.99985000  0.50005000  0.99905000
unknown system                          
           1
     4.199198    0.000000    0.000000
     0.000000    4.199198    0.000000
     0.000000    0.000000    4.199198
   Ir   O 
   2   6
Direct configuration=     4
   0.00033000  0.99991000  0.00043000
   0.50102000  0.49984000  0.49984000
   0.00106000  0.50051000  0.49969000
   0.50036000  0.49969000  0.99969000
   0.50016000  0.99872000  0.49884000
   0.49962000  0.99932000  0.00021000
   0.99939000  0.99905000  0.50098000
   0.99985000  0.50005000  0.99905000
unknown system                          
           1
     4.208695    0.000000    0.000000
     0.000000    4.208695    0.000000
     0.000000    0.000000    4.208695
   Ir   O 
   2   6
Direct configuration=     5
   0.00033000  0.99991000  0.00043000
   0.50102000  0.49984000  0.49984000
   0.00106000  0.50051000  0.49969000
   0.50036000  0.49969000  0.99969000
   0.50016000  0.99872000  0.49884000
   0.49962000  0.99932000  0.00021000
   0.99939000  0.99905000  0.50098000
   0.99985000  0.50005000  0.99905000
unknown system                          
           1
     4.207215    0.000000    0.000000
     0.000000    4.207215    0.000000
     0.000000    0.000000    4.207215
   Ir   O 
   2   6
Direct configuration=     6
   0.00033000  0.99991000  0.00043000
   0.50102000  0.49984000  0.49984000
   0.00106000  0.50051000  0.49969000
   0.50036000  0.49969000  0.99969000
   0.50016000  0.99872000  0.49884000
   0.49962000  0.99932000  0.00021000
   0.99939000  0.99905000  0.50098000
   0.99985000  0.50005000  0.99905000
unknown system                          
           1
     4.207001    0.000000    0.000000
     0.000000    4.207001    0.000000
     0.000000    0.000000    4.207001
   Ir   O 
   2   6
Direct configuration=     7
   0.00033000  0.99991000  0.00043000
   0.50102000  0.49984000  0.49984000
   0.00106000  0.50051000  0.49969000
   0.50036000  0.49969000  0.99969000
   0.50016000  0.99872000  0.49884000
   0.49962000  0.99932000  0.00021000
   0.99939000  0.99905000  0.50098000
   0.99985000  0.50005000  0.99905000
unknown system                          
           1
     4.203099    0.000000    0.000000
     0.000000    4.203099    0.000000
     0.000000    0.000000    4.203099
   Ir   O 
   2   6
Direct configuration=     8
   0.00033000  0.99991000  0.00043000
   0.50102000  0.49984000  0.49984000
   0.00106000  0.50051000  0.49969000
   0.50036000  0.49969000  0.99969000
   0.50016000  0.99872000  0.49884000
   0.49962000  0.99932000  0.00021000
   0.99939000  0.99905000  0.50098000
   0.99985000  0.50005000  0.99905000
unknown system                          
           1
     4.206341    0.000000    0.000000
     0.000000    4.206341    0.000000
     0.000000    0.000000    4.206341
   Ir   O 
   2   6
Direct configuration=     9
   0.00033000  0.99991000  0.00043000
   0.50102000  0.49984000  0.49984000
   0.00106000  0.50051000  0.49969000
   0.50036000  0.49969000  0.99969000
   0.50016000  0.99872000  0.49884000
   0.49962000  0.99932000  0.00021000
   0.99939000  0.99905000  0.50098000
   0.99985000  0.50005000  0.99905000
unknown system                          
           1
     4.206720    0.000000    0.000000
     0.000000    4.206720    0.000000
     0.000000    0.000000    4.206720
   Ir   O 
   2   6
Direct configuration=    10
   0.00033000  0.99991000  0.00043000
   0.50102000  0.49984000  0.49984000
   0.00106000  0.50051000  0.49969000
   0.50036000  0.49969000  0.99969000
   0.50016000  0.99872000  0.49884000
   0.49962000  0.99932000  0.00021000
   0.99939000  0.99905000  0.50098000
   0.99985000  0.50005000  0.99905000
unknown system                          
           1
     4.206897    0.000000    0.000000
     0.000000    4.206897    0.000000
     0.000000    0.000000    4.206897
   Ir   O 
   2   6
Direct configuration=    11
   0.00033000  0.99991000  0.00043000
   0.50102000  0.49984000  0.49984000
   0.00106000  0.50051000  0.49969000
   0.50036000  0.49969000  0.99969000
   0.50016000  0.99872000  0.49884000
   0.49962000  0.99932000  0.00021000
   0.99939000  0.99905000  0.50098000
   0.99985000  0.50005000  0.99905000
unknown system                          
           1
     4.206944    0.000000    0.000000
     0.000000    4.206944    0.000000
     0.000000    0.000000    4.206944
   Ir   O 
   2   6
Direct configuration=    12
   0.00033000  0.99991000  0.00043000
   0.50102000  0.49984000  0.49984000
   0.00106000  0.50051000  0.49969000
   0.50036000  0.49969000  0.99969000
   0.50016000  0.99872000  0.49884000
   0.49962000  0.99932000  0.00021000
   0.99939000  0.99905000  0.50098000
   0.99985000  0.50005000  0.99905000
unknown system                          
           1
     4.206972    0.000000    0.000000
     0.000000    4.206972    0.000000
     0.000000    0.000000    4.206972
   Ir   O 
   2   6
Direct configuration=    13
   0.00033000  0.99991000  0.00043000
   0.50102000  0.49984000  0.49984000
   0.00106000  0.50051000  0.49969000
   0.50036000  0.49969000  0.99969000
   0.50016000  0.99872000  0.49884000
   0.49962000  0.99932000  0.00021000
   0.99939000  0.99905000  0.50098000
   0.99985000  0.50005000  0.99905000
unknown system                          
           1
     4.206987    0.000000    0.000000
     0.000000    4.206987    0.000000
     0.000000    0.000000    4.206987
   Ir   O 
   2   6
Direct configuration=    14
   0.00033000  0.99991000  0.00043000
   0.50102000  0.49984000  0.49984000
   0.00106000  0.50051000  0.49969000
   0.50036000  0.49969000  0.99969000
   0.50016000  0.99872000  0.49884000
   0.49962000  0.99932000  0.00021000
   0.99939000  0.99905000  0.50098000
   0.99985000  0.50005000  0.99905000
unknown system                          
           1
     4.206994    0.000000    0.000000
     0.000000    4.206994    0.000000
     0.000000    0.000000    4.206994
   Ir   O 
   2   6
Direct configuration=    15
   0.00033000  0.99991000  0.00043000
   0.50102000  0.49984000  0.49984000
   0.00106000  0.50051000  0.49969000
   0.50036000  0.49969000  0.99969000
   0.50016000  0.99872000  0.49884000
   0.49962000  0.99932000  0.00021000
   0.99939000  0.99905000  0.50098000
   0.99985000  0.50005000  0.99905000
unknown system                          
           1
     4.206997    0.000000    0.000000
     0.000000    4.206997    0.000000
     0.000000    0.000000    4.206997
   Ir   O 
   2   6
Direct configuration=    16
   0.00033000  0.99991000  0.00043000
   0.50102000  0.49984000  0.49984000
   0.00106000  0.50051000  0.49969000
   0.50036000  0.49969000  0.99969000
   0.50016000  0.99872000  0.49884000
   0.49962000  0.99932000  0.00021000
   0.99939000  0.99905000  0.50098000
   0.99985000  0.50005000  0.99905000
unknown system                          
           1
     4.206996    0.000000    0.000000
     0.000000    4.206996    0.000000
     0.000000    0.000000    4.206996
   Ir   O 
   2   6
Direct configuration=    17
   0.00033000  0.99991000  0.00043000
   0.50102000  0.49984000  0.49984000
   0.00106000  0.50051000  0.49969000
   0.50036000  0.49969000  0.99969000
   0.50016000  0.99872000  0.49884000
   0.49962000  0.99932000  0.00021000
   0.99939000  0.99905000  0.50098000
   0.99985000  0.50005000  0.99905000
unknown system                          
           1
     4.206995    0.000000    0.000000
     0.000000    4.206995    0.000000
     0.000000    0.000000    4.206995
   Ir   O 
   2   6
Direct configuration=    18
   0.00033000  0.99991000  0.00043000
   0.50102000  0.49984000  0.49984000
   0.00106000  0.50051000  0.49969000
   0.50036000  0.49969000  0.99969000
   0.50016000  0.99872000  0.49884000
   0.49962000  0.99932000  0.00021000
   0.99939000  0.99905000  0.50098000
   0.99985000  0.50005000  0.99905000
unknown system                          
           1
     3.610640    0.000000    0.000000
     0.000000    3.610640    0.000000
     0.000000    0.000000    3.610640
   Ir   O 
   2   6
Direct configuration=    19
   0.00033000  0.99991000  0.00043000
   0.50102000  0.49984000  0.49984000
   0.00106000  0.50051000  0.49969000
   0.50036000  0.49969000  0.99969000
   0.50016000  0.99872000  0.49884000
   0.49962000  0.99932000  0.00021000
   0.99939000  0.99905000  0.50098000
   0.99985000  0.50005000  0.99905000
