 vasp.5.4.4.18Apr17-6-g9f103f2a35 (build Jul 26 2017 05:51:53) complex          
  
 executed on IFC17.0.2.174_CrayMP date 2018.08.24  03:49:09
 running on  240 total cores
 distrk:  each k-point on   24 cores,   10 groups
 distr:  one band on NCORES_PER_BAND=   6 cores,    4 groups


--------------------------------------------------------------------------------------------------------


 INCAR:
 POTCAR:    PAW_PBE O 08Apr2002                   
 POTCAR:    PAW_PBE Ir 06Sep2000                  

 ----------------------------------------------------------------------------- 
|                                                                             |
|           W    W    AA    RRRRR   N    N  II  N    N   GGGG   !!!           |
|           W    W   A  A   R    R  NN   N  II  NN   N  G    G  !!!           |
|           W    W  A    A  R    R  N N  N  II  N N  N  G       !!!           |
|           W WW W  AAAAAA  RRRRR   N  N N  II  N  N N  G  GGG   !            |
|           WW  WW  A    A  R   R   N   NN  II  N   NN  G    G                |
|           W    W  A    A  R    R  N    N  II  N    N   GGGG   !!!           |
|                                                                             |
|      For optimal performance we recommend to set                            |
|        NCORE= 4 - approx SQRT( number of cores)                             |
|      NCORE specifies how many cores store one orbital (NPAR=cpu/NCORE).     |
|      This setting can  greatly improve the performance of VASP for DFT.     |
|      The default,   NCORE=1            might be grossly inefficient         |
|      on modern multi-core architectures or massively parallel machines.     |
|      Do your own testing !!!!                                               |
|      Unfortunately you need to use the default for GW and RPA calculations. |
|      (for HF NCORE is supported but not extensively tested yet)             |
|                                                                             |
 ----------------------------------------------------------------------------- 


 ----------------------------------------------------------------------------- 
|                                                                             |
|           W    W    AA    RRRRR   N    N  II  N    N   GGGG   !!!           |
|           W    W   A  A   R    R  NN   N  II  NN   N  G    G  !!!           |
|           W    W  A    A  R    R  N N  N  II  N N  N  G       !!!           |
|           W WW W  AAAAAA  RRRRR   N  N N  II  N  N N  G  GGG   !            |
|           WW  WW  A    A  R   R   N   NN  II  N   NN  G    G                |
|           W    W  A    A  R    R  N    N  II  N    N   GGGG   !!!           |
|                                                                             |
|      You have enabled k-point parallelism (KPAR>1).                         |
|      This developmental code was originally  written by Paul Kent at ORNL,  |
|      and carefully double checked in Vienna.                                |
|      GW as well as linear response parallelism added by Martijn Marsman     |
|      and Georg Kresse.                                                      |
|      Carefully verify results versus KPAR=1.                                |
|      Report problems to Paul Kent and Vienna.                               |
|                                                                             |
 ----------------------------------------------------------------------------- 

 POTCAR:    PAW_PBE O 08Apr2002                   
   VRHFIN =O: s2p4                                                              
   LEXCH  = PE                                                                  
   EATOM  =   432.3788 eV,   31.7789 Ry                                         
                                                                                
   TITEL  = PAW_PBE O 08Apr2002                                                 
   LULTRA =        F    use ultrasoft PP ?                                      
   IUNSCR =        1    unscreen: 0-lin 1-nonlin 2-no                           
   RPACOR =    1.200    partial core radius                                     
   POMASS =   16.000; ZVAL   =    6.000    mass and valenz                      
   RCORE  =    1.520    outmost cutoff radius                                   
   RWIGS  =    1.550; RWIGS  =    0.820    wigner-seitz radius (au A)           
   ENMAX  =  400.000; ENMIN  =  300.000 eV                                      
   ICORE  =        2    local potential                                         
   LCOR   =        T    correct aug charges                                     
   LPAW   =        T    paw PP                                                  
   EAUG   =  605.392                                                            
   DEXC   =    0.000                                                            
   RMAX   =    1.553    core radius for proj-oper                               
   RAUG   =    1.300    factor for augmentation sphere                          
   RDEP   =    1.550    radius for radial grids                                 
   RDEPT  =    1.329    core radius for aug-charge                              
                                                                                
   Atomic configuration                                                         
    4 entries                                                                   
     n  l   j            E        occ.                                          
     1  0  0.50      -514.6923   2.0000                                         
     2  0  0.50       -23.9615   2.0000                                         
     2  1  0.50        -9.0305   4.0000                                         
     3  2  1.50        -9.5241   0.0000                                         
   Description                                                                  
     l       E           TYP  RCUT    TYP  RCUT                                 
     0    -23.9615318     23  1.200                                             
     0     -9.5240782     23  1.200                                             
     1     -9.0304911     23  1.520                                             
     1      8.1634956     23  1.520                                             
     2     -9.5240782      7  1.500                                             
  local pseudopotential read in
  partial core-charges read in
  partial kinetic energy density read in
  kinetic energy density of atom read in
  atomic valenz-charges read in
  non local Contribution for L=           0  read in
    real space projection operators read in
  non local Contribution for L=           0  read in
    real space projection operators read in
  non local Contribution for L=           1  read in
    real space projection operators read in
  non local Contribution for L=           1  read in
    real space projection operators read in
    PAW grid and wavefunctions read in
 
   number of l-projection  operators is LMAX  =           4
   number of lm-projection operators is LMMAX =           8
 
 POTCAR:    PAW_PBE Ir 06Sep2000                  
   VRHFIN =Ir: s1d8                                                             
   LEXCH  = PE                                                                  
   EATOM  =   560.1833 eV,   41.1723 Ry                                         
                                                                                
   TITEL  = PAW_PBE Ir 06Sep2000                                                
   LULTRA =        F    use ultrasoft PP ?                                      
   IUNSCR =        1    unscreen: 0-lin 1-nonlin 2-no                           
   RPACOR =    2.250    partial core radius                                     
   POMASS =  192.220; ZVAL   =    9.000    mass and valenz                      
   RCORE  =    2.600    outmost cutoff radius                                   
   RWIGS  =    2.690; RWIGS  =    1.423    wigner-seitz radius (au A)           
   ENMAX  =  210.864; ENMIN  =  158.148 eV                                      
   RCLOC  =    1.857    cutoff for local pot                                    
   LCOR   =        T    correct aug charges                                     
   LPAW   =        T    paw PP                                                  
   EAUG   =  318.962                                                            
   DEXC   =    0.000                                                            
   RMAX   =    2.667    core radius for proj-oper                               
   RAUG   =    1.300    factor for augmentation sphere                          
   RDEP   =    2.748    radius for radial grids                                 
   RDEPT  =    2.300    core radius for aug-charge                              
                                                                                
   Atomic configuration                                                         
   16 entries                                                                   
     n  l   j            E        occ.                                          
     1  0  0.50    -76100.0449   2.0000                                         
     2  0  0.50    -13308.1683   2.0000                                         
     2  1  1.50    -11558.0021   6.0000                                         
     3  0  0.50     -3110.7274   2.0000                                         
     3  1  1.50     -2599.2109   6.0000                                         
     3  2  2.50     -2037.1515  10.0000                                         
     4  0  0.50      -661.6001   2.0000                                         
     4  1  1.50      -493.8981   6.0000                                         
     4  2  2.50      -288.1909  10.0000                                         
     4  3  3.50       -59.5718  14.0000                                         
     5  0  0.50       -95.3879   2.0000                                         
     5  1  1.50       -52.2747   6.0000                                         
     5  2  2.50        -5.4180   8.0000                                         
     6  0  0.50        -5.5479   1.0000                                         
     6  1  1.50        -6.8029   0.0000                                         
     5  3  2.50        -1.3606   0.0000                                         
   Description                                                                  
     l       E           TYP  RCUT    TYP  RCUT                                 
     2     -5.4179967     23  2.600                                             
     2     -6.7785793     23  2.600                                             
     0     -5.5478636     23  2.600                                             
     0      2.2542272     23  2.600                                             
     1     -2.7211652     23  2.600                                             
     1     20.4087390     23  2.600                                             
  local pseudopotential read in
  partial core-charges read in
  partial kinetic energy density read in
  atomic valenz-charges read in
  non local Contribution for L=           2  read in
    real space projection operators read in
  non local Contribution for L=           2  read in
    real space projection operators read in
  non local Contribution for L=           0  read in
    real space projection operators read in
  non local Contribution for L=           0  read in
    real space projection operators read in
  non local Contribution for L=           1  read in
    real space projection operators read in
  non local Contribution for L=           1  read in
    real space projection operators read in
    PAW grid and wavefunctions read in
 
   number of l-projection  operators is LMAX  =           6
   number of lm-projection operators is LMMAX =          18
 
 Optimization of the real space projectors (new method)

 maximal supplied QI-value         = 24.76
 optimisation between [QCUT,QGAM] = [ 11.39, 22.77] = [ 36.31,145.25] Ry 
 Optimized for a Real-space Cutoff    1.00 Angstroem

   l    n(q)    QCUT    max X(q) W(low)/X(q) W(high)/X(q)  e(spline) 
   0      7    11.387    20.381    0.39E-03    0.13E-02    0.15E-06
   0      7    11.387    15.268    0.42E-03    0.14E-02    0.17E-06
   1      6    11.387     5.964    0.41E-03    0.11E-02    0.17E-06
   1      6    11.387     5.382    0.39E-03    0.87E-03    0.15E-06
 Optimization of the real space projectors (new method)

 maximal supplied QI-value         = 14.36
 optimisation between [QCUT,QGAM] = [ 11.35, 22.84] = [ 36.05,146.02] Ry 
 Optimized for a Real-space Cutoff    1.52 Angstroem

   l    n(q)    QCUT    max X(q) W(low)/X(q) W(high)/X(q)  e(spline) 
   2      9    11.346   134.116    0.47E-03    0.13E-03    0.92E-06
   2      9    11.346   130.192    0.47E-03    0.13E-03    0.92E-06
   0     10    11.346    60.310    0.74E-04    0.13E-03    0.69E-06
   0     10    11.346    39.218    0.68E-04    0.12E-03    0.65E-06
   1     10    11.346    18.439    0.15E-03    0.34E-04    0.20E-06
   1     10    11.346    12.760    0.12E-03    0.31E-04    0.16E-06
  PAW_PBE O 08Apr2002                   :
 energy of atom  1       EATOM= -432.3788
 kinetic energy error for atom=    0.0224 (will be added to EATOM!!)
  PAW_PBE Ir 06Sep2000                  :
 energy of atom  2       EATOM= -560.1833
 kinetic energy error for atom=    0.0018 (will be added to EATOM!!)
 
 
 POSCAR:  O Ir                                   
  positions in cartesian coordinates
  No initial velocities read in
 exchange correlation table for  LEXCH =        8
   RHO(1)=    0.500       N(1)  =     2000
   RHO(2)=  100.500       N(2)  =     4000
 


--------------------------------------------------------------------------------------------------------


 ion  position               nearest neighbor table
   1  0.820  0.820  0.000-  13 1.94  16 1.94
   2  0.180  0.180  0.000-  13 1.94  16 1.94
   3  0.680  0.320  0.500-  15 1.94  14 1.94
   4  0.320  0.680  0.500-  15 1.94  14 1.94
   5  0.212  0.212  0.675-  14 1.91  16 1.92
   6  0.788  0.788  0.675-  14 1.91  16 1.92
   7  0.288  0.712  0.175-  13 1.91  15 1.92
   8  0.712  0.288  0.175-  13 1.91  15 1.92
   9  0.288  0.712  0.825-  16 1.91  14 1.92
  10  0.712  0.288  0.825-  16 1.91  14 1.92
  11  0.212  0.212  0.325-  15 1.91  13 1.92
  12  0.788  0.788  0.325-  15 1.91  13 1.92
  13  0.000  0.000  0.175-   7 1.91   8 1.91  11 1.92  12 1.92   2 1.94   1 1.94  16 3.06
  14  0.500  0.500  0.675-   6 1.91   5 1.91   9 1.92  10 1.92   3 1.94   4 1.94  15 3.06
  15  0.500  0.500  0.325-  12 1.91  11 1.91   7 1.92   8 1.92   3 1.94   4 1.94  14 3.06
  16  0.000  0.000  0.825-   9 1.91  10 1.91   5 1.92   6 1.92   2 1.94   1 1.94  13 3.06
 
  LATTYP: Found a simple tetragonal cell.
 ALAT       =     4.6963500000
 C/A-ratio  =     1.8574744216
  
  Lattice vectors:
  
 A1 = (   4.6963500000,   0.0000000000,   0.0000000000)
 A2 = (   0.0000081967,   4.6963500000,   0.0000000000)
 A3 = (   0.0000000000,   0.0000000000,   8.7233500000)


Analysis of symmetry for initial positions (statically):
=====================================================================
 Subroutine PRICEL returns:
 Original cell was already a primitive cell.
 

 Routine SETGRP: Setting up the symmetry group for a 
 simple tetragonal supercell.


 Subroutine GETGRP returns: Found  2 space group operations
 (whereof  2 operations were pure point group operations)
 out of a pool of 16 trial point group operations.


The static configuration has the point symmetry C_1h.


Analysis of symmetry for dynamics (positions and initial velocities):
=====================================================================
 Subroutine PRICEL returns:
 Original cell was already a primitive cell.
 

 Routine SETGRP: Setting up the symmetry group for a 
 simple tetragonal supercell.


 Subroutine GETGRP returns: Found  2 space group operations
 (whereof  2 operations were pure point group operations)
 out of a pool of 16 trial point group operations.


The dynamic configuration has the point symmetry C_1h.


Analysis of structural, dynamic, and magnetic symmetry:
=====================================================================
 Subroutine PRICEL returns:
 Original cell was already a primitive cell.
 

 Routine SETGRP: Setting up the symmetry group for a 
 simple tetragonal supercell.


 Subroutine GETGRP returns: Found  2 space group operations
 (whereof  2 operations were pure point group operations)
 out of a pool of 16 trial point group operations.


The magnetic configuration has the point symmetry C_1h.


 Subroutine INISYM returns: Found  2 space group operations
 (whereof  2 operations are pure point group operations),
 and found     1 'primitive' translations

 
 
 KPOINTS: KPOINTS created by Atomic Simulation Env

Automatic generation of k-mesh.
Space group operators:
 irot       det(A)        alpha          n_x          n_y          n_z        tau_x        tau_y        tau_z
    1     1.000000     0.000000     1.000000     0.000000     0.000000     0.000000     0.000000     0.000000
    2    -1.000000   180.000000     0.707106    -0.707107     0.000000     0.000000     0.000000     0.000000
 
 Subroutine IBZKPT returns following result:
 ===========================================
 
 Found     24 irreducible k-points:
 
 Following reciprocal coordinates:
            Coordinates               Weight
  0.000000  0.000000  0.000000      1.000000
  0.250000  0.000000  0.000000      4.000000
  0.500000  0.000000  0.000000      2.000000
  0.250000  0.250000  0.000000      2.000000
  0.500000  0.250000  0.000000      4.000000
 -0.250000  0.250000  0.000000      2.000000
  0.500000  0.500000  0.000000      1.000000
  0.000000  0.000000  0.250000      2.000000
  0.250000  0.000000  0.250000      4.000000
  0.500000  0.000000  0.250000      4.000000
 -0.250000 -0.000000  0.250000      4.000000
  0.250000  0.250000  0.250000      2.000000
  0.500000  0.250000  0.250000      4.000000
 -0.250000  0.250000  0.250000      4.000000
  0.500000  0.500000  0.250000      2.000000
 -0.250000  0.500000  0.250000      4.000000
 -0.250000 -0.250000  0.250000      2.000000
  0.000000  0.000000  0.500000      1.000000
  0.250000  0.000000  0.500000      4.000000
  0.500000  0.000000  0.500000      2.000000
  0.250000  0.250000  0.500000      2.000000
  0.500000  0.250000  0.500000      4.000000
 -0.250000  0.250000  0.500000      2.000000
  0.500000  0.500000  0.500000      1.000000
 
 Following cartesian coordinates:
            Coordinates               Weight
  0.000000  0.000000  0.000000      1.000000
  0.053233 -0.000000  0.000000      4.000000
  0.106466 -0.000000  0.000000      2.000000
  0.053233  0.053233  0.000000      2.000000
  0.106466  0.053233  0.000000      4.000000
 -0.053233  0.053233  0.000000      2.000000
  0.106466  0.106465  0.000000      1.000000
  0.000000  0.000000  0.028659      2.000000
  0.053233 -0.000000  0.028659      4.000000
  0.106466 -0.000000  0.028659      4.000000
 -0.053233  0.000000  0.028659      4.000000
  0.053233  0.053233  0.028659      2.000000
  0.106466  0.053233  0.028659      4.000000
 -0.053233  0.053233  0.028659      4.000000
  0.106466  0.106465  0.028659      2.000000
 -0.053233  0.106466  0.028659      4.000000
 -0.053233 -0.053233  0.028659      2.000000
  0.000000  0.000000  0.057317      1.000000
  0.053233 -0.000000  0.057317      4.000000
  0.106466 -0.000000  0.057317      2.000000
  0.053233  0.053233  0.057317      2.000000
  0.106466  0.053233  0.057317      4.000000
 -0.053233  0.053233  0.057317      2.000000
  0.106466  0.106465  0.057317      1.000000
 


--------------------------------------------------------------------------------------------------------




 Dimension of arrays:
   k-points           NKPTS =     24   k-points in BZ     NKDIM =     24   number of bands    NBANDS=     72
   number of dos      NEDOS =    301   number of ions     NIONS =     16
   non local maximal  LDIM  =      6   non local SUM 2l+1 LMDIM =     18
   total plane-waves  NPLWV =  37632
   max r-space proj   IRMAX =   2919   max aug-charges    IRDMAX=  14342
   dimension x,y,z NGX =    28 NGY =   28 NGZ =   48
   dimension x,y,z NGXF=    56 NGYF=   56 NGZF=   96
   support grid    NGXF=    56 NGYF=   56 NGZF=   96
   ions per type =              12   4
   NGX,Y,Z   is equivalent  to a cutoff of   9.91,  9.91,  9.15 a.u.
   NGXF,Y,Z  is equivalent  to a cutoff of  19.82, 19.82, 18.30 a.u.

 SYSTEM =  unknown system                          
 POSCAR =   O Ir                                   

 Startparameter for this run:
   NWRITE =      2    write-flag & timer
   PREC   = normal    normal or accurate (medium, high low for compatibility)
   ISTART =      0    job   : 0-new  1-cont  2-samecut
   ICHARG =      2    charge: 1-file 2-atom 10-const
   ISPIN  =      2    spin polarized calculation?
   LNONCOLLINEAR =      F non collinear calculations
   LSORBIT =      F    spin-orbit coupling
   INIWAV =      1    electr: 0-lowe 1-rand  2-diag
   LASPH  =      T    aspherical Exc in radial PAW
   METAGGA=      F    non-selfconsistent MetaGGA calc.

 Electronic Relaxation 1
   ENCUT  =  500.0 eV  36.75 Ry    6.06 a.u.   8.56  8.56 15.90*2*pi/ulx,y,z
   ENINI  =  500.0     initial cutoff
   ENAUG  =  605.4 eV  augmentation charge cutoff
   NELM   =    250;   NELMIN=  2; NELMDL= -5     # of ELM steps 
   EDIFF  = 0.1E-04   stopping-criterion for ELM
   LREAL  =      T    real-space projection
   NLSPLINE    = F    spline interpolate recip. space projectors
   LCOMPAT=      F    compatible to vasp.4.4
   GGA_COMPAT  = T    GGA compatible to vasp.4.4-vasp.4.6
   LMAXPAW     = -100 max onsite density
   LMAXMIX     =    6 max onsite mixed and CHGCAR
   VOSKOWN=      0    Vosko Wilk Nusair interpolation
   ROPT   =   -0.00050  -0.00050
 Ionic relaxation
   EDIFFG = -.2E-01   stopping-criterion for IOM
   NSW    =    150    number of steps for IOM
   NBLOCK =      1;   KBLOCK =    150    inner block; outer block 
   IBRION =      2    ionic relax: 0-MD 1-quasi-New 2-CG
   NFREE  =      1    steps in history (QN), initial steepest desc. (CG)
   ISIF   =      2    stress and relaxation
   IWAVPR =     11    prediction:  0-non 1-charg 2-wave 3-comb
   ISYM   =      2    0-nonsym 1-usesym 2-fastsym
   LCORR  =      T    Harris-Foulkes like correction to forces

   POTIM  = 0.5000    time-step for ionic-motion
   TEIN   =    0.0    initial temperature
   TEBEG  =    0.0;   TEEND  =   0.0 temperature during run
   SMASS  =  -3.00    Nose mass-parameter (am)
   estimated Nose-frequenzy (Omega)   =  0.10E-29 period in steps =****** mass=  -0.504E-27a.u.
   SCALEE = 1.0000    scale energy and forces
   NPACO  =    256;   APACO  = 16.0  distance and # of slots for P.C.
   PSTRESS=    0.0 pullay stress

  Mass of Ions in am
   POMASS =  16.00192.22
  Ionic Valenz
   ZVAL   =   6.00  9.00
  Atomic Wigner-Seitz radii
   RWIGS  =  -1.00 -1.00
  virtual crystal weights 
   VCA    =   1.00  1.00
   NELECT =     108.0000    total number of electrons
   NUPDOWN=      -1.0000    fix difference up-down

 DOS related values:
   EMIN   =  10.00;   EMAX   =-10.00  energy-range for DOS
   EFERMI =   0.00
   ISMEAR =     0;   SIGMA  =   0.05  broadening in eV -4-tet -1-fermi 0-gaus

 Electronic relaxation 2 (details)
   IALGO  =     38    algorithm
   LDIAG  =      T    sub-space diagonalisation (order eigenvalues)
   LSUBROT=      F    optimize rotation matrix (better conditioning)
   TURBO    =      0    0=normal 1=particle mesh
   IRESTART =      0    0=no restart 2=restart with 2 vectors
   NREBOOT  =      0    no. of reboots
   NMIN     =      0    reboot dimension
   EREF     =   0.00    reference energy to select bands
   IMIX   =      4    mixing-type and parameters
     AMIX     =   0.05;   BMIX     =  0.00
     AMIX_MAG =   0.05;   BMIX_MAG =  0.00
     AMIN     =   0.05
     WC   =   100.;   INIMIX=   0;  MIXPRE=   1;  MAXMIX= -45

 Intra band minimization:
   WEIMIN = 0.0010     energy-eigenvalue tresh-hold
   EBREAK =  0.35E-07  absolut break condition
   DEPER  =   0.30     relativ break condition  

   TIME   =   0.40     timestep for ELM

  volume/ion in A,a.u.               =      12.02        81.15
  Fermi-wavevector in a.u.,A,eV,Ry     =   1.350459  2.551997 24.813476  1.823739
  Thomas-Fermi vector in A             =   2.477962
 
 Write flags
   LWAVE        =      T    write WAVECAR
   LDOWNSAMPLE  =      F    k-point downsampling of WAVECAR
   LCHARG       =      T    write CHGCAR
   LVTOT        =      F    write LOCPOT, total local potential
   LVHAR        =      F    write LOCPOT, Hartree potential only
   LELF         =      F    write electronic localiz. function (ELF)
   LORBIT       =     11    0 simple, 1 ext, 2 COOP (PROOUT), +10 PAW based schemes


 Dipole corrections
   LMONO  =      F    monopole corrections only (constant potential shift)
   LDIPOL =      F    correct potential (dipole corrections)
   IDIPOL =      3    1-x, 2-y, 3-z, 4-all directions 
   EPSILON=  1.0000000 bulk dielectric constant

 Exchange correlation treatment:
   GGA     =    PE    GGA type
   LEXCH   =     8    internal setting for exchange type
   VOSKOWN=      0    Vosko Wilk Nusair interpolation
   LHFCALC =     F    Hartree Fock is set to
   LHFONE  =     F    Hartree Fock one center treatment
   AEXX    =    0.0000 exact exchange contribution

 Linear response parameters
   LEPSILON=     F    determine dielectric tensor
   LRPA    =     F    only Hartree local field effects (RPA)
   LNABLA  =     F    use nabla operator in PAW spheres
   LVEL    =     F    velocity operator in full k-point grid
   LINTERFAST=   F  fast interpolation
   KINTER  =     0    interpolate to denser k-point grid
   CSHIFT  =0.1000    complex shift for real part using Kramers Kronig
   OMEGAMAX=  -1.0    maximum frequency
   DEG_THRESHOLD= 0.2000000E-02 threshold for treating states as degnerate
   RTIME   =   -0.100 relaxation time in fs
  (WPLASMAI=    0.000 imaginary part of plasma frequency in eV, 0.658/RTIME)
   DFIELD  = 0.0000000 0.0000000 0.0000000 field for delta impulse in time
 
 Orbital magnetization related:
   ORBITALMAG=     F  switch on orbital magnetization
   LCHIMAG   =     F  perturbation theory with respect to B field
   DQ        =  0.001000  dq finite difference perturbation B field
   LLRAUG    =     F  two centre corrections for induced B field



--------------------------------------------------------------------------------------------------------


 conjugate gradient relaxation of ions
 charge density and potential will be updated during run
 spin polarized calculation
 Variant of blocked Davidson
 Davidson routine will perform the subspace rotation
 perform sub-space diagonalisation
    after iterative eigenvector-optimisation
 modified Broyden-mixing scheme, WC =      100.0
 initial mixing is a simple linear mixing with ALPHA =  0.0500
 Hartree-type preconditioning will be used
 using additional bands           18
 real space projection scheme for non local part
 use partial core corrections
 calculate Harris-corrections to forces 
   (improved forces if not selfconsistent)
 use gradient corrections 
 use of overlap-Matrix (Vanderbilt PP)
 Gauss-broadening in eV      SIGMA  =   0.05


--------------------------------------------------------------------------------------------------------


  energy-cutoff  :      500.00
  volume of cell :      192.40
      direct lattice vectors                 reciprocal lattice vectors
     4.696350000  0.000000000  0.000000000     0.212931319 -0.000000372  0.000000000
     0.000008197  4.696350000  0.000000000     0.000000000  0.212931319  0.000000000
     0.000000000  0.000000000  8.723350000     0.000000000  0.000000000  0.114634859

  length of vectors
     4.696350000  4.696350000  8.723350000     0.212931319  0.212931319  0.114634859


 
 k-points in units of 2pi/SCALE and weight: KPOINTS created by Atomic Simulation Env
   0.00000000  0.00000000  0.00000000       0.016
   0.05323283 -0.00000009  0.00000000       0.062
   0.10646566 -0.00000019  0.00000000       0.031
   0.05323283  0.05323274  0.00000000       0.031
   0.10646566  0.05323264  0.00000000       0.062
  -0.05323283  0.05323292  0.00000000       0.031
   0.10646566  0.10646547  0.00000000       0.016
   0.00000000  0.00000000  0.02865871       0.031
   0.05323283 -0.00000009  0.02865871       0.062
   0.10646566 -0.00000019  0.02865871       0.062
  -0.05323283  0.00000009  0.02865871       0.062
   0.05323283  0.05323274  0.02865871       0.031
   0.10646566  0.05323264  0.02865871       0.062
  -0.05323283  0.05323292  0.02865871       0.062
   0.10646566  0.10646547  0.02865871       0.031
  -0.05323283  0.10646575  0.02865871       0.062
  -0.05323283 -0.05323274  0.02865871       0.031
   0.00000000  0.00000000  0.05731743       0.016
   0.05323283 -0.00000009  0.05731743       0.062
   0.10646566 -0.00000019  0.05731743       0.031
   0.05323283  0.05323274  0.05731743       0.031
   0.10646566  0.05323264  0.05731743       0.062
  -0.05323283  0.05323292  0.05731743       0.031
   0.10646566  0.10646547  0.05731743       0.016
 
 k-points in reciprocal lattice and weights: KPOINTS created by Atomic Simulation Env
   0.00000000  0.00000000  0.00000000       0.016
   0.25000000  0.00000000  0.00000000       0.062
   0.50000000  0.00000000  0.00000000       0.031
   0.25000000  0.25000000  0.00000000       0.031
   0.50000000  0.25000000  0.00000000       0.062
  -0.25000000  0.25000000  0.00000000       0.031
   0.50000000  0.50000000  0.00000000       0.016
   0.00000000  0.00000000  0.25000000       0.031
   0.25000000  0.00000000  0.25000000       0.062
   0.50000000  0.00000000  0.25000000       0.062
  -0.25000000 -0.00000000  0.25000000       0.062
   0.25000000  0.25000000  0.25000000       0.031
   0.50000000  0.25000000  0.25000000       0.062
  -0.25000000  0.25000000  0.25000000       0.062
   0.50000000  0.50000000  0.25000000       0.031
  -0.25000000  0.50000000  0.25000000       0.062
  -0.25000000 -0.25000000  0.25000000       0.031
   0.00000000  0.00000000  0.50000000       0.016
   0.25000000  0.00000000  0.50000000       0.062
   0.50000000  0.00000000  0.50000000       0.031
   0.25000000  0.25000000  0.50000000       0.031
   0.50000000  0.25000000  0.50000000       0.062
  -0.25000000  0.25000000  0.50000000       0.031
   0.50000000  0.50000000  0.50000000       0.016
 
 position of ions in fractional coordinates (direct lattice) 
   0.81965000  0.81965000  0.00000000
   0.18034000  0.18034000  0.00000000
   0.68035000  0.31965000  0.50000000
   0.31965000  0.68035000  0.50000000
   0.21239000  0.21239000  0.67526000
   0.78760000  0.78760000  0.67526000
   0.28761000  0.71239000  0.17526000
   0.71239000  0.28761000  0.17526000
   0.28761000  0.71239000  0.82474000
   0.71239000  0.28761000  0.82474000
   0.21239000  0.21239000  0.32474000
   0.78760000  0.78760000  0.32474000
   0.00000000  0.00000000  0.17534000
   0.50000000  0.50000000  0.67535000
   0.50000000  0.50000000  0.32466000
   0.00000000  0.00000000  0.82466000
 
 position of ions in cartesian coordinates  (Angst):
   3.84937000  3.84936328  0.00000000
   0.84694124  0.84693976  0.00000000
   3.19516434  1.50118828  4.36167500
   1.50119385  3.19516172  4.36167500
   0.99745952  0.99745778  5.89052932
   3.69885172  3.69884526  5.89052932
   1.35072306  3.34563278  1.52885432
   3.34563513  1.35071722  1.52885432
   1.35072306  3.34563278  7.19449568
   3.34563513  1.35071722  7.19449568
   0.99745952  0.99745778  2.83282068
   3.69885172  3.69884526  2.83282068
   0.00000000  0.00000000  1.52955219
   2.34817910  2.34817500  5.89131442
   2.34817910  2.34817500  2.83212281
   0.00000000  0.00000000  7.19379781
 


--------------------------------------------------------------------------------------------------------


 k-point  1 :   0.0000 0.0000 0.0000  plane waves:    4863
 k-point  2 :   0.2500 0.0000 0.0000  plane waves:    4899
 k-point  3 :   0.5000 0.0000 0.0000  plane waves:    4890
 k-point  4 :   0.2500 0.2500 0.0000  plane waves:    4876
 k-point  5 :   0.5000 0.2500 0.0000  plane waves:    4878
 k-point  6 :  -0.2500 0.2500 0.0000  plane waves:    4876
 k-point  7 :   0.5000 0.5000 0.0000  plane waves:    4872
 k-point  8 :   0.0000 0.0000 0.2500  plane waves:    4904
 k-point  9 :   0.2500 0.0000 0.2500  plane waves:    4894
 k-point 10 :   0.5000 0.0000 0.2500  plane waves:    4894
 k-point 11 :  -0.2500-0.0000 0.2500  plane waves:    4894
 k-point 12 :   0.2500 0.2500 0.2500  plane waves:    4894
 k-point 13 :   0.5000 0.2500 0.2500  plane waves:    4876
 k-point 14 :  -0.2500 0.2500 0.2500  plane waves:    4896
 k-point 15 :   0.5000 0.5000 0.2500  plane waves:    4856
 k-point 16 :  -0.2500 0.5000 0.2500  plane waves:    4876
 k-point 17 :  -0.2500-0.2500 0.2500  plane waves:    4894
 k-point 18 :   0.0000 0.0000 0.5000  plane waves:    4888
 k-point 19 :   0.2500 0.0000 0.5000  plane waves:    4902
 k-point 20 :   0.5000 0.0000 0.5000  plane waves:    4888
 k-point 21 :   0.2500 0.2500 0.5000  plane waves:    4898
 k-point 22 :   0.5000 0.2500 0.5000  plane waves:    4872
 k-point 23 :  -0.2500 0.2500 0.5000  plane waves:    4898
 k-point 24 :   0.5000 0.5000 0.5000  plane waves:    4848

 maximum and minimum number of plane-waves per node :       833      794

 maximum number of plane-waves:      4904
 maximum index in each direction: 
   IXMAX=    8   IYMAX=    8   IZMAX=   15
   IXMIN=   -9   IYMIN=   -9   IZMIN=  -16


 real space projection operators:
  total allocation   :       2159.50 KBytes
  max/ min on nodes  :        385.12        308.38


 parallel 3D FFT for wavefunctions:
    minimum data exchange during FFTs selected (reduces bandwidth)
 parallel 3D FFT for charge:
    minimum data exchange during FFTs selected (reduces bandwidth)


 total amount of memory used by VASP MPI-rank0    45816. kBytes
=======================================================================

   base      :      30000. kBytes
   nonlr-proj:       1251. kBytes
   fftplans  :        731. kBytes
   grid      :       1853. kBytes
   one-center:         93. kBytes
   wavefun   :      11888. kBytes
 
     INWAV:  cpu time    0.0000: real time    0.0003
 Broyden mixing: mesh for mixing (old mesh)
   NGX = 17   NGY = 17   NGZ = 31
  (NGX  = 56   NGY  = 56   NGZ  = 96)
  gives a total of   8959 points

 initial charge density was supplied:
 charge density of overlapping atoms calculated
 number of electron     108.0000000 magnetization      16.0000000
 keeping initial charge density in first step


--------------------------------------------------------------------------------------------------------


 Maximum index for non-local projection operator          544
 Maximum index for augmentation-charges         1158 (set IRDMAX)


--------------------------------------------------------------------------------------------------------


 First call to EWALD:  gamma=   0.307
 Maximum number of real-space cells 3x 3x 2
 Maximum number of reciprocal cells 2x 2x 4

    FEWALD:  cpu time    0.0040: real time    0.0020


--------------------------------------- Iteration      1(   1)  ---------------------------------------


    POTLOK:  cpu time    0.0240: real time    0.0812
    SETDIJ:  cpu time    0.5640: real time    0.5642
     EDDAV:  cpu time    0.3080: real time    0.4068
       DOS:  cpu time    0.0040: real time    0.0044
    --------------------------------------------
      LOOP:  cpu time    0.9000: real time    1.0567

 eigenvalue-minimisations  :  6912
 total energy-change (2. order) : 0.1086815E+04  (-0.5321506E+04)
 number of electron     108.0000000 magnetization      16.0000000
 augmentation part      108.0000000 magnetization      16.0000000

 Free energy of the ion-electron system (eV)
  ---------------------------------------------------
  alpha Z        PSCENC =       440.46436163
  Ewald energy   TEWEN  =     -5918.72318115
  -Hartree energ DENC   =     -1926.93952961
  -exchange      EXHF   =         0.00000000
  -V(xc)+E(xc)   XCENC  =       264.37982545
  PAW double counting   =      6362.12184073    -6222.39335305
  entropy T*S    EENTRO =        -0.00641328
  eigenvalues    EBANDS =       658.90858608
  atomic energy  EATOM  =      7429.00326683
  Solvation  Ediel_sol  =         0.00000000
  ---------------------------------------------------
  free energy    TOTEN  =      1086.81540364 eV

  energy without entropy =     1086.82181692  energy(sigma->0) =     1086.81861028


--------------------------------------------------------------------------------------------------------




--------------------------------------- Iteration      1(   2)  ---------------------------------------


     EDDAV:  cpu time    0.2680: real time    0.2737
       DOS:  cpu time    0.0040: real time    0.0033
    --------------------------------------------
      LOOP:  cpu time    0.2720: real time    0.2770

 eigenvalue-minimisations  :  6976
 total energy-change (2. order) :-0.1080937E+04  (-0.1024848E+04)
 number of electron     108.0000000 magnetization      16.0000000
 augmentation part      108.0000000 magnetization      16.0000000

 Free energy of the ion-electron system (eV)
  ---------------------------------------------------
  alpha Z        PSCENC =       440.46436163
  Ewald energy   TEWEN  =     -5918.72318115
  -Hartree energ DENC   =     -1926.93952961
  -exchange      EXHF   =         0.00000000
  -V(xc)+E(xc)   XCENC  =       264.37982545
  PAW double counting   =      6362.12184073    -6222.39335305
  entropy T*S    EENTRO =        -0.00729499
  eigenvalues    EBANDS =      -422.02766407
  atomic energy  EATOM  =      7429.00326683
  Solvation  Ediel_sol  =         0.00000000
  ---------------------------------------------------
  free energy    TOTEN  =         5.87827178 eV

  energy without entropy =        5.88556677  energy(sigma->0) =        5.88191927


--------------------------------------------------------------------------------------------------------




--------------------------------------- Iteration      1(   3)  ---------------------------------------


     EDDAV:  cpu time    0.3240: real time    0.3307
       DOS:  cpu time    0.0040: real time    0.0038
    --------------------------------------------
      LOOP:  cpu time    0.3280: real time    0.3345

 eigenvalue-minimisations  :  8672
 total energy-change (2. order) :-0.1350693E+03  (-0.1266137E+03)
 number of electron     108.0000000 magnetization      16.0000000
 augmentation part      108.0000000 magnetization      16.0000000

 Free energy of the ion-electron system (eV)
  ---------------------------------------------------
  alpha Z        PSCENC =       440.46436163
  Ewald energy   TEWEN  =     -5918.72318115
  -Hartree energ DENC   =     -1926.93952961
  -exchange      EXHF   =         0.00000000
  -V(xc)+E(xc)   XCENC  =       264.37982545
  PAW double counting   =      6362.12184073    -6222.39335305
  entropy T*S    EENTRO =        -0.01964329
  eigenvalues    EBANDS =      -557.08463887
  atomic energy  EATOM  =      7429.00326683
  Solvation  Ediel_sol  =         0.00000000
  ---------------------------------------------------
  free energy    TOTEN  =      -129.19105132 eV

  energy without entropy =     -129.17140803  energy(sigma->0) =     -129.18122968


--------------------------------------------------------------------------------------------------------




--------------------------------------- Iteration      1(   4)  ---------------------------------------


     EDDAV:  cpu time    0.3080: real time    0.3141
       DOS:  cpu time    0.0040: real time    0.0025
    --------------------------------------------
      LOOP:  cpu time    0.3120: real time    0.3165

 eigenvalue-minimisations  :  8096
 total energy-change (2. order) :-0.4966811E+01  (-0.4923274E+01)
 number of electron     108.0000000 magnetization      16.0000000
 augmentation part      108.0000000 magnetization      16.0000000

 Free energy of the ion-electron system (eV)
  ---------------------------------------------------
  alpha Z        PSCENC =       440.46436163
  Ewald energy   TEWEN  =     -5918.72318115
  -Hartree energ DENC   =     -1926.93952961
  -exchange      EXHF   =         0.00000000
  -V(xc)+E(xc)   XCENC  =       264.37982545
  PAW double counting   =      6362.12184073    -6222.39335305
  entropy T*S    EENTRO =        -0.01603392
  eigenvalues    EBANDS =      -562.05505970
  atomic energy  EATOM  =      7429.00326683
  Solvation  Ediel_sol  =         0.00000000
  ---------------------------------------------------
  free energy    TOTEN  =      -134.15786279 eV

  energy without entropy =     -134.14182887  energy(sigma->0) =     -134.14984583


--------------------------------------------------------------------------------------------------------




--------------------------------------- Iteration      1(   5)  ---------------------------------------


     EDDAV:  cpu time    0.3080: real time    0.3123
       DOS:  cpu time    0.0040: real time    0.0035
    CHARGE:  cpu time    0.0200: real time    0.0226
    MIXING:  cpu time    0.0080: real time    0.0065
    --------------------------------------------
      LOOP:  cpu time    0.3400: real time    0.3449

 eigenvalue-minimisations  :  8408
 total energy-change (2. order) :-0.1371930E+00  (-0.1370493E+00)
 number of electron     107.9999767 magnetization      15.4441312
 augmentation part       15.8688274 magnetization      12.6037771

 Broyden mixing:
  rms(total) = 0.93289E+01    rms(broyden)= 0.93286E+01
  rms(prec ) = 0.10260E+02
  weight for this iteration     100.00

 Free energy of the ion-electron system (eV)
  ---------------------------------------------------
  alpha Z        PSCENC =       440.46436163
  Ewald energy   TEWEN  =     -5918.72318115
  -Hartree energ DENC   =     -1926.93952961
  -exchange      EXHF   =         0.00000000
  -V(xc)+E(xc)   XCENC  =       264.37982545
  PAW double counting   =      6362.12184073    -6222.39335305
  entropy T*S    EENTRO =        -0.01578236
  eigenvalues    EBANDS =      -562.19250423
  atomic energy  EATOM  =      7429.00326683
  Solvation  Ediel_sol  =         0.00000000
  ---------------------------------------------------
  free energy    TOTEN  =      -134.29505576 eV

  energy without entropy =     -134.27927340  energy(sigma->0) =     -134.28716458


--------------------------------------------------------------------------------------------------------




--------------------------------------- Iteration      1(   6)  ---------------------------------------


    POTLOK:  cpu time    0.0200: real time    0.0276
    SETDIJ:  cpu time    0.6120: real time    0.6085
     EDDAV:  cpu time    0.3760: real time    0.3785
       DOS:  cpu time    0.0040: real time    0.0035
    CHARGE:  cpu time    0.0200: real time    0.0216
    MIXING:  cpu time    0.0080: real time    0.0043
    --------------------------------------------
      LOOP:  cpu time    1.0400: real time    1.0440

 eigenvalue-minimisations  : 10728
 total energy-change (2. order) : 0.1291313E+02  (-0.2972442E+00)
 number of electron     107.9999780 magnetization      12.0044091
 augmentation part       16.0236015 magnetization       9.4801608

 Broyden mixing:
  rms(total) = 0.80241E+01    rms(broyden)= 0.80241E+01
  rms(prec ) = 0.87468E+01
  weight for this iteration     100.00

 eigenvalues of (default mixing * dielectric matrix)
  average eigenvalue GAMMA=   6.4732
  6.4732

 Free energy of the ion-electron system (eV)
  ---------------------------------------------------
  alpha Z        PSCENC =       440.46436163
  Ewald energy   TEWEN  =     -5918.72318115
  -Hartree energ DENC   =     -1932.21062786
  -exchange      EXHF   =         0.00000000
  -V(xc)+E(xc)   XCENC  =       265.82995432
  PAW double counting   =      6524.71091951    -6386.60534176
  entropy T*S    EENTRO =        -0.02342819
  eigenvalues    EBANDS =      -543.82785379
  atomic energy  EATOM  =      7429.00326683
  Solvation  Ediel_sol  =         0.00000000
  ---------------------------------------------------
  free energy    TOTEN  =      -121.38193046 eV

  energy without entropy =     -121.35850227  energy(sigma->0) =     -121.37021637


--------------------------------------------------------------------------------------------------------




--------------------------------------- Iteration      1(   7)  ---------------------------------------


    POTLOK:  cpu time    0.0200: real time    0.0274
    SETDIJ:  cpu time    0.6080: real time    0.6088
     EDDAV:  cpu time    0.3680: real time    0.3690
       DOS:  cpu time    0.0040: real time    0.0024
    CHARGE:  cpu time    0.0200: real time    0.0204
    MIXING:  cpu time    0.0040: real time    0.0046
    --------------------------------------------
      LOOP:  cpu time    1.0240: real time    1.0326

 eigenvalue-minimisations  : 10608
 total energy-change (2. order) : 0.1502968E+02  (-0.7356185E+01)
 number of electron     107.9999867 magnetization      12.2554511
 augmentation part       18.1868200 magnetization       8.1443441

 Broyden mixing:
  rms(total) = 0.53322E+01    rms(broyden)= 0.53316E+01
  rms(prec ) = 0.56528E+01
  weight for this iteration     100.00

 eigenvalues of (default mixing * dielectric matrix)
  average eigenvalue GAMMA=   3.1949
  5.9555  0.4343

 Free energy of the ion-electron system (eV)
  ---------------------------------------------------
  alpha Z        PSCENC =       440.46436163
  Ewald energy   TEWEN  =     -5918.72318115
  -Hartree energ DENC   =     -1969.58726528
  -exchange      EXHF   =         0.00000000
  -V(xc)+E(xc)   XCENC  =       273.55909415
  PAW double counting   =      7510.55681042    -7380.75859834
  entropy T*S    EENTRO =        -0.01427909
  eigenvalues    EBANDS =      -490.85245596
  atomic energy  EATOM  =      7429.00326683
  Solvation  Ediel_sol  =         0.00000000
  ---------------------------------------------------
  free energy    TOTEN  =      -106.35224678 eV

  energy without entropy =     -106.33796769  energy(sigma->0) =     -106.34510723


--------------------------------------------------------------------------------------------------------




--------------------------------------- Iteration      1(   8)  ---------------------------------------


    POTLOK:  cpu time    0.0240: real time    0.0274
    SETDIJ:  cpu time    0.6080: real time    0.6083
     EDDAV:  cpu time    0.2960: real time    0.2948
       DOS:  cpu time    0.0040: real time    0.0075
    CHARGE:  cpu time    0.0240: real time    0.0217
    MIXING:  cpu time    0.0040: real time    0.0041
    --------------------------------------------
      LOOP:  cpu time    0.9600: real time    0.9638

 eigenvalue-minimisations  :  7672
 total energy-change (2. order) :-0.7098967E+00  (-0.7618645E+00)
 number of electron     107.9999869 magnetization      11.3782995
 augmentation part       17.9763960 magnetization       7.2018378

 Broyden mixing:
  rms(total) = 0.57822E+01    rms(broyden)= 0.57822E+01
  rms(prec ) = 0.60990E+01
  weight for this iteration     100.00

 eigenvalues of (default mixing * dielectric matrix)
  average eigenvalue GAMMA=   3.0271
  6.3738  1.3537  1.3537

 Free energy of the ion-electron system (eV)
  ---------------------------------------------------
  alpha Z        PSCENC =       440.46436163
  Ewald energy   TEWEN  =     -5918.72318115
  -Hartree energ DENC   =     -1968.72672203
  -exchange      EXHF   =         0.00000000
  -V(xc)+E(xc)   XCENC  =       273.51584763
  PAW double counting   =      7424.89716254    -7294.67767719
  entropy T*S    EENTRO =        -0.01433219
  eigenvalues    EBANDS =      -492.80086956
  atomic energy  EATOM  =      7429.00326683
  Solvation  Ediel_sol  =         0.00000000
  ---------------------------------------------------
  free energy    TOTEN  =      -107.06214349 eV

  energy without entropy =     -107.04781130  energy(sigma->0) =     -107.05497739


--------------------------------------------------------------------------------------------------------




--------------------------------------- Iteration      1(   9)  ---------------------------------------


    POTLOK:  cpu time    0.0200: real time    0.0273
    SETDIJ:  cpu time    0.6080: real time    0.6076
     EDDAV:  cpu time    0.3520: real time    0.3496
       DOS:  cpu time    0.0000: real time    0.0028
    CHARGE:  cpu time    0.0240: real time    0.0207
    MIXING:  cpu time    0.0040: real time    0.0041
    --------------------------------------------
      LOOP:  cpu time    1.0080: real time    1.0120

 eigenvalue-minimisations  :  9872
 total energy-change (2. order) : 0.2614463E+01  (-0.9337550E-01)
 number of electron     107.9999859 magnetization       8.7602876
 augmentation part       17.5519692 magnetization       5.3265389

 Broyden mixing:
  rms(total) = 0.43301E+01    rms(broyden)= 0.43301E+01
  rms(prec ) = 0.45203E+01
  weight for this iteration     100.00

 eigenvalues of (default mixing * dielectric matrix)
  average eigenvalue GAMMA=   4.4268
 12.1276  3.8763  0.8517  0.8517

 Free energy of the ion-electron system (eV)
  ---------------------------------------------------
  alpha Z        PSCENC =       440.46436163
  Ewald energy   TEWEN  =     -5918.72318115
  -Hartree energ DENC   =     -1973.73510467
  -exchange      EXHF   =         0.00000000
  -V(xc)+E(xc)   XCENC  =       273.17469043
  PAW double counting   =      7743.25181293    -7614.31686478
  entropy T*S    EENTRO =        -0.01407481
  eigenvalues    EBANDS =      -483.55258719
  atomic energy  EATOM  =      7429.00326683
  Solvation  Ediel_sol  =         0.00000000
  ---------------------------------------------------
  free energy    TOTEN  =      -104.44768076 eV

  energy without entropy =     -104.43360595  energy(sigma->0) =     -104.44064336


--------------------------------------------------------------------------------------------------------




--------------------------------------- Iteration      1(  10)  ---------------------------------------


    POTLOK:  cpu time    0.0200: real time    0.0276
    SETDIJ:  cpu time    0.6080: real time    0.6076
     EDDAV:  cpu time    0.3600: real time    0.3589
       DOS:  cpu time    0.0040: real time    0.0030
    CHARGE:  cpu time    0.0200: real time    0.0206
    MIXING:  cpu time    0.0040: real time    0.0041
    --------------------------------------------
      LOOP:  cpu time    1.0160: real time    1.0217

 eigenvalue-minimisations  : 10192
 total energy-change (2. order) : 0.1532235E+01  (-0.3305011E+00)
 number of electron     107.9999841 magnetization       6.4221893
 augmentation part       16.9030177 magnetization       4.3079957

 Broyden mixing:
  rms(total) = 0.19985E+01    rms(broyden)= 0.19983E+01
  rms(prec ) = 0.20703E+01
  weight for this iteration     100.00

 eigenvalues of (default mixing * dielectric matrix)
  average eigenvalue GAMMA=   4.4669
 15.6270  3.7262  1.0059  0.9877  0.9877

 Free energy of the ion-electron system (eV)
  ---------------------------------------------------
  alpha Z        PSCENC =       440.46436163
  Ewald energy   TEWEN  =     -5918.72318115
  -Hartree energ DENC   =     -1985.39142206
  -exchange      EXHF   =         0.00000000
  -V(xc)+E(xc)   XCENC  =       272.67089556
  PAW double counting   =      8702.90186249    -8577.98675112
  entropy T*S    EENTRO =        -0.01716355
  eigenvalues    EBANDS =      -465.83731398
  atomic energy  EATOM  =      7429.00326683
  Solvation  Ediel_sol  =         0.00000000
  ---------------------------------------------------
  free energy    TOTEN  =      -102.91544534 eV

  energy without entropy =     -102.89828179  energy(sigma->0) =     -102.90686357


--------------------------------------------------------------------------------------------------------




--------------------------------------- Iteration      1(  11)  ---------------------------------------


    POTLOK:  cpu time    0.0200: real time    0.0277
    SETDIJ:  cpu time    0.6080: real time    0.6074
     EDDAV:  cpu time    0.3080: real time    0.3089
       DOS:  cpu time    0.0080: real time    0.0061
    CHARGE:  cpu time    0.0200: real time    0.0219
    MIXING:  cpu time    0.0040: real time    0.0043
    --------------------------------------------
      LOOP:  cpu time    0.9680: real time    0.9763

 eigenvalue-minimisations  :  8184
 total energy-change (2. order) :-0.6154595E+00  (-0.4460446E-01)
 number of electron     107.9999843 magnetization       4.8635800
 augmentation part       16.9524225 magnetization       3.1144010

 Broyden mixing:
  rms(total) = 0.10125E+01    rms(broyden)= 0.10125E+01
  rms(prec ) = 0.11661E+01
  weight for this iteration     100.00

 eigenvalues of (default mixing * dielectric matrix)
  average eigenvalue GAMMA=   5.0086
 18.6111  4.7635  3.7189  1.0544  0.9520  0.9520

 Free energy of the ion-electron system (eV)
  ---------------------------------------------------
  alpha Z        PSCENC =       440.46436163
  Ewald energy   TEWEN  =     -5918.72318115
  -Hartree energ DENC   =     -1990.98514959
  -exchange      EXHF   =         0.00000000
  -V(xc)+E(xc)   XCENC  =       273.07526838
  PAW double counting   =      9523.96646113    -9402.63468340
  entropy T*S    EENTRO =        -0.01366752
  eigenvalues    EBANDS =      -457.68358113
  atomic energy  EATOM  =      7429.00326683
  Solvation  Ediel_sol  =         0.00000000
  ---------------------------------------------------
  free energy    TOTEN  =      -103.53090483 eV

  energy without entropy =     -103.51723731  energy(sigma->0) =     -103.52407107


--------------------------------------------------------------------------------------------------------




--------------------------------------- Iteration      1(  12)  ---------------------------------------


    POTLOK:  cpu time    0.0240: real time    0.0295
    SETDIJ:  cpu time    0.6080: real time    0.6079
     EDDAV:  cpu time    0.3680: real time    0.4162
       DOS:  cpu time    0.0040: real time    0.0025
    CHARGE:  cpu time    0.0200: real time    0.0203
    MIXING:  cpu time    0.0040: real time    0.0042
    --------------------------------------------
      LOOP:  cpu time    1.0280: real time    1.0806

 eigenvalue-minimisations  : 10640
 total energy-change (2. order) : 0.3561831E+00  (-0.1473536E+00)
 number of electron     107.9999836 magnetization       4.6544786
 augmentation part       16.8111717 magnetization       3.5345201

 Broyden mixing:
  rms(total) = 0.90707E+00    rms(broyden)= 0.90696E+00
  rms(prec ) = 0.95625E+00
  weight for this iteration     100.00

 eigenvalues of (default mixing * dielectric matrix)
  average eigenvalue GAMMA=   4.5441
 20.0398  4.1271  3.5542  0.9707  0.9606  0.9606  1.1957

 Free energy of the ion-electron system (eV)
  ---------------------------------------------------
  alpha Z        PSCENC =       440.46436163
  Ewald energy   TEWEN  =     -5918.72318115
  -Hartree energ DENC   =     -1972.49927022
  -exchange      EXHF   =         0.00000000
  -V(xc)+E(xc)   XCENC  =       271.43001071
  PAW double counting   =      9861.71145219    -9741.59767511
  entropy T*S    EENTRO =        -0.01332153
  eigenvalues    EBANDS =      -472.95036512
  atomic energy  EATOM  =      7429.00326683
  Solvation  Ediel_sol  =         0.00000000
  ---------------------------------------------------
  free energy    TOTEN  =      -103.17472176 eV

  energy without entropy =     -103.16140022  energy(sigma->0) =     -103.16806099


--------------------------------------------------------------------------------------------------------




--------------------------------------- Iteration      1(  13)  ---------------------------------------


    POTLOK:  cpu time    0.0240: real time    0.2373
    SETDIJ:  cpu time    0.6080: real time    0.6113
     EDDAV:  cpu time    0.3040: real time    0.3009
       DOS:  cpu time    0.0000: real time    0.0031
    CHARGE:  cpu time    0.0240: real time    0.0216
    MIXING:  cpu time    0.0040: real time    0.0045
    --------------------------------------------
      LOOP:  cpu time    0.9640: real time    1.1786

 eigenvalue-minimisations  :  7776
 total energy-change (2. order) :-0.1171147E+00  (-0.2247881E-01)
 number of electron     107.9999837 magnetization       3.5704260
 augmentation part       16.8200232 magnetization       2.4508431

 Broyden mixing:
  rms(total) = 0.10404E+01    rms(broyden)= 0.10404E+01
  rms(prec ) = 0.10925E+01
  weight for this iteration     100.00

 eigenvalues of (default mixing * dielectric matrix)
  average eigenvalue GAMMA=   4.7947
 20.6254  7.9989  4.0511  0.9845  0.9712  0.9712  1.3776  1.3776

 Free energy of the ion-electron system (eV)
  ---------------------------------------------------
  alpha Z        PSCENC =       440.46436163
  Ewald energy   TEWEN  =     -5918.72318115
  -Hartree energ DENC   =     -1979.52500514
  -exchange      EXHF   =         0.00000000
  -V(xc)+E(xc)   XCENC  =       271.95034107
  PAW double counting   =     10040.93403994    -9921.56458698
  entropy T*S    EENTRO =        -0.01342642
  eigenvalues    EBANDS =      -465.81764621
  atomic energy  EATOM  =      7429.00326683
  Solvation  Ediel_sol  =         0.00000000
  ---------------------------------------------------
  free energy    TOTEN  =      -103.29183643 eV

  energy without entropy =     -103.27841000  energy(sigma->0) =     -103.28512322


--------------------------------------------------------------------------------------------------------




--------------------------------------- Iteration      1(  14)  ---------------------------------------


    POTLOK:  cpu time    0.0240: real time    0.0279
    SETDIJ:  cpu time    0.6080: real time    0.6091
     EDDAV:  cpu time    0.3080: real time    0.3081
       DOS:  cpu time    0.0040: real time    0.0037
    CHARGE:  cpu time    0.0200: real time    0.0202
    MIXING:  cpu time    0.0040: real time    0.0044
    --------------------------------------------
      LOOP:  cpu time    0.9680: real time    0.9734

 eigenvalue-minimisations  :  8176
 total energy-change (2. order) : 0.7221810E-01  (-0.7413644E-01)
 number of electron     107.9999836 magnetization       1.3759705
 augmentation part       16.9938000 magnetization       0.4966328

 Broyden mixing:
  rms(total) = 0.77105E+00    rms(broyden)= 0.77104E+00
  rms(prec ) = 0.82850E+00
  weight for this iteration     100.00

 eigenvalues of (default mixing * dielectric matrix)
  average eigenvalue GAMMA=   5.8807
 26.1656 15.4354  4.0807  2.6030  0.9419  0.9419  1.1077  0.9984  0.6517

 Free energy of the ion-electron system (eV)
  ---------------------------------------------------
  alpha Z        PSCENC =       440.46436163
  Ewald energy   TEWEN  =     -5918.72318115
  -Hartree energ DENC   =     -1952.89959108
  -exchange      EXHF   =         0.00000000
  -V(xc)+E(xc)   XCENC  =       270.35473573
  PAW double counting   =      9963.93633274    -9844.30668498
  entropy T*S    EENTRO =        -0.01045785
  eigenvalues    EBANDS =      -491.03840020
  atomic energy  EATOM  =      7429.00326683
  Solvation  Ediel_sol  =         0.00000000
  ---------------------------------------------------
  free energy    TOTEN  =      -103.21961833 eV

  energy without entropy =     -103.20916048  energy(sigma->0) =     -103.21438940


--------------------------------------------------------------------------------------------------------




--------------------------------------- Iteration      1(  15)  ---------------------------------------


    POTLOK:  cpu time    0.0280: real time    0.0280
    SETDIJ:  cpu time    0.6080: real time    0.6086
     EDDAV:  cpu time    0.3120: real time    0.3112
       DOS:  cpu time    0.0040: real time    0.0029
    CHARGE:  cpu time    0.0200: real time    0.0207
    MIXING:  cpu time    0.0040: real time    0.0043
    --------------------------------------------
      LOOP:  cpu time    0.9760: real time    0.9757

 eigenvalue-minimisations  :  8400
 total energy-change (2. order) :-0.3817269E+00  (-0.1930171E+00)
 number of electron     107.9999833 magnetization       1.0634100
 augmentation part       17.2830609 magnetization       0.6052213

 Broyden mixing:
  rms(total) = 0.71746E+00    rms(broyden)= 0.71740E+00
  rms(prec ) = 0.78280E+00
  weight for this iteration     100.00

 eigenvalues of (default mixing * dielectric matrix)
  average eigenvalue GAMMA=   5.6047
 27.7104 16.0488  4.0569  2.6367  1.0613  1.0613  0.9053  0.9053  0.8304  0.8304

 Free energy of the ion-electron system (eV)
  ---------------------------------------------------
  alpha Z        PSCENC =       440.46436163
  Ewald energy   TEWEN  =     -5918.72318115
  -Hartree energ DENC   =     -1913.49798946
  -exchange      EXHF   =         0.00000000
  -V(xc)+E(xc)   XCENC  =       268.09539439
  PAW double counting   =      9919.77984170    -9800.13119833
  entropy T*S    EENTRO =        -0.00992247
  eigenvalues    EBANDS =      -528.58191834
  atomic energy  EATOM  =      7429.00326683
  Solvation  Ediel_sol  =         0.00000000
  ---------------------------------------------------
  free energy    TOTEN  =      -103.60134520 eV

  energy without entropy =     -103.59142273  energy(sigma->0) =     -103.59638396


--------------------------------------------------------------------------------------------------------




--------------------------------------- Iteration      1(  16)  ---------------------------------------


    POTLOK:  cpu time    0.0240: real time    0.0279
    SETDIJ:  cpu time    0.6080: real time    0.6087
     EDDAV:  cpu time    0.3040: real time    0.3053
       DOS:  cpu time    0.0040: real time    0.0038
    CHARGE:  cpu time    0.0200: real time    0.0205
    MIXING:  cpu time    0.0040: real time    0.0048
    --------------------------------------------
      LOOP:  cpu time    0.9640: real time    0.9710

 eigenvalue-minimisations  :  8016
 total energy-change (2. order) :-0.7102049E-01  (-0.8978725E-02)
 number of electron     107.9999832 magnetization       0.5562894
 augmentation part       17.2968832 magnetization       0.1670762

 Broyden mixing:
  rms(total) = 0.72421E+00    rms(broyden)= 0.72421E+00
  rms(prec ) = 0.79724E+00
  weight for this iteration     100.00

 eigenvalues of (default mixing * dielectric matrix)
  average eigenvalue GAMMA=   5.9943
 30.9625 17.8047  4.2760  4.2760  2.6827  1.2707  0.9520  0.9520  0.9787  0.9787
  0.8037

 Free energy of the ion-electron system (eV)
  ---------------------------------------------------
  alpha Z        PSCENC =       440.46436163
  Ewald energy   TEWEN  =     -5918.72318115
  -Hartree energ DENC   =     -1911.03309419
  -exchange      EXHF   =         0.00000000
  -V(xc)+E(xc)   XCENC  =       267.93123270
  PAW double counting   =      9900.79727841    -9781.14677962
  entropy T*S    EENTRO =        -0.01027017
  eigenvalues    EBANDS =      -530.95518014
  atomic energy  EATOM  =      7429.00326683
  Solvation  Ediel_sol  =         0.00000000
  ---------------------------------------------------
  free energy    TOTEN  =      -103.67236569 eV

  energy without entropy =     -103.66209553  energy(sigma->0) =     -103.66723061


--------------------------------------------------------------------------------------------------------




--------------------------------------- Iteration      1(  17)  ---------------------------------------


    POTLOK:  cpu time    0.0240: real time    0.0288
    SETDIJ:  cpu time    0.6080: real time    0.6079
     EDDAV:  cpu time    0.2840: real time    0.2851
       DOS:  cpu time    0.0080: real time    0.0047
    CHARGE:  cpu time    0.0200: real time    0.0225
    MIXING:  cpu time    0.0040: real time    0.0048
    --------------------------------------------
      LOOP:  cpu time    0.9480: real time    0.9538

 eigenvalue-minimisations  :  7520
 total energy-change (2. order) : 0.1316413E+00  (-0.8848697E-02)
 number of electron     107.9999833 magnetization      -0.4555952
 augmentation part       17.2643748 magnetization      -0.6887190

 Broyden mixing:
  rms(total) = 0.52064E+00    rms(broyden)= 0.52063E+00
  rms(prec ) = 0.58122E+00
  weight for this iteration     100.00

 eigenvalues of (default mixing * dielectric matrix)
  average eigenvalue GAMMA=   6.8972
 41.0821 19.2435  8.6517  4.1429  2.7052  1.3316  0.9532  0.9532  1.0792  0.9452
  0.8395  0.8395

 Free energy of the ion-electron system (eV)
  ---------------------------------------------------
  alpha Z        PSCENC =       440.46436163
  Ewald energy   TEWEN  =     -5918.72318115
  -Hartree energ DENC   =     -1920.16515711
  -exchange      EXHF   =         0.00000000
  -V(xc)+E(xc)   XCENC  =       268.42189306
  PAW double counting   =      9754.36021958    -9634.50699627
  entropy T*S    EENTRO =        -0.01244329
  eigenvalues    EBANDS =      -522.38268770
  atomic energy  EATOM  =      7429.00326683
  Solvation  Ediel_sol  =         0.00000000
  ---------------------------------------------------
  free energy    TOTEN  =      -103.54072442 eV

  energy without entropy =     -103.52828113  energy(sigma->0) =     -103.53450277


--------------------------------------------------------------------------------------------------------




--------------------------------------- Iteration      1(  18)  ---------------------------------------


    POTLOK:  cpu time    0.0240: real time    0.0285
    SETDIJ:  cpu time    0.6120: real time    0.6096
     EDDAV:  cpu time    0.2960: real time    0.2985
       DOS:  cpu time    0.0040: real time    0.0032
    CHARGE:  cpu time    0.0200: real time    0.0209
    MIXING:  cpu time    0.0080: real time    0.0046
    --------------------------------------------
      LOOP:  cpu time    0.9640: real time    0.9654

 eigenvalue-minimisations  :  7944
 total energy-change (2. order) : 0.1519182E+00  (-0.2638048E-01)
 number of electron     107.9999834 magnetization      -0.4925057
 augmentation part       17.1826300 magnetization      -0.3989311

 Broyden mixing:
  rms(total) = 0.35188E+00    rms(broyden)= 0.35185E+00
  rms(prec ) = 0.38785E+00
  weight for this iteration     100.00

 eigenvalues of (default mixing * dielectric matrix)
  average eigenvalue GAMMA=   6.4336
 41.2393 19.2996  8.5429  4.1343  2.7210  1.5589  0.9544  0.9544  1.1055  0.9331
  0.8162  0.8162  0.5609

 Free energy of the ion-electron system (eV)
  ---------------------------------------------------
  alpha Z        PSCENC =       440.46436163
  Ewald energy   TEWEN  =     -5918.72318115
  -Hartree energ DENC   =     -1935.48433625
  -exchange      EXHF   =         0.00000000
  -V(xc)+E(xc)   XCENC  =       269.26436720
  PAW double counting   =      9601.46664729    -9481.57651456
  entropy T*S    EENTRO =        -0.01188215
  eigenvalues    EBANDS =      -507.79153503
  atomic energy  EATOM  =      7429.00326683
  Solvation  Ediel_sol  =         0.00000000
  ---------------------------------------------------
  free energy    TOTEN  =      -103.38880618 eV

  energy without entropy =     -103.37692403  energy(sigma->0) =     -103.38286510


--------------------------------------------------------------------------------------------------------




--------------------------------------- Iteration      1(  19)  ---------------------------------------


    POTLOK:  cpu time    0.0200: real time    0.0277
    SETDIJ:  cpu time    0.6080: real time    0.6088
     EDDAV:  cpu time    0.3080: real time    0.3053
       DOS:  cpu time    0.0040: real time    0.0045
    CHARGE:  cpu time    0.0200: real time    0.0214
    MIXING:  cpu time    0.0040: real time    0.0046
    --------------------------------------------
      LOOP:  cpu time    0.9640: real time    0.9723

 eigenvalue-minimisations  :  8144
 total energy-change (2. order) : 0.2691360E-02  (-0.1018557E-02)
 number of electron     107.9999835 magnetization      -0.4825914
 augmentation part       17.1826607 magnetization      -0.3766532

 Broyden mixing:
  rms(total) = 0.34846E+00    rms(broyden)= 0.34845E+00
  rms(prec ) = 0.38312E+00
  weight for this iteration     100.00

 eigenvalues of (default mixing * dielectric matrix)
  average eigenvalue GAMMA=   6.1144
 41.0556 19.3704  8.7876  4.1353  2.6938  1.7829  1.4166  0.9578  0.9578  1.0879
  0.9364  0.8357  0.8357  0.7481

 Free energy of the ion-electron system (eV)
  ---------------------------------------------------
  alpha Z        PSCENC =       440.46436163
  Ewald energy   TEWEN  =     -5918.72318115
  -Hartree energ DENC   =     -1935.94660046
  -exchange      EXHF   =         0.00000000
  -V(xc)+E(xc)   XCENC  =       269.30593587
  PAW double counting   =      9596.27921197    -9476.37432697
  entropy T*S    EENTRO =        -0.01177240
  eigenvalues    EBANDS =      -507.38301014
  atomic energy  EATOM  =      7429.00326683
  Solvation  Ediel_sol  =         0.00000000
  ---------------------------------------------------
  free energy    TOTEN  =      -103.38611482 eV

  energy without entropy =     -103.37434241  energy(sigma->0) =     -103.38022862


--------------------------------------------------------------------------------------------------------




--------------------------------------- Iteration      1(  20)  ---------------------------------------


    POTLOK:  cpu time    0.0240: real time    0.0276
    SETDIJ:  cpu time    0.6120: real time    0.6115
     EDDAV:  cpu time    0.2960: real time    0.2988
       DOS:  cpu time    0.0040: real time    0.0025
    CHARGE:  cpu time    0.0200: real time    0.0210
    MIXING:  cpu time    0.0080: real time    0.0062
    --------------------------------------------
      LOOP:  cpu time    0.9640: real time    0.9676

 eigenvalue-minimisations  :  7912
 total energy-change (2. order) :-0.2329994E-02  (-0.4403056E-04)
 number of electron     107.9999835 magnetization      -0.4196099
 augmentation part       17.1805474 magnetization      -0.3177056

 Broyden mixing:
  rms(total) = 0.35127E+00    rms(broyden)= 0.35127E+00
  rms(prec ) = 0.38599E+00
  weight for this iteration     100.00

 eigenvalues of (default mixing * dielectric matrix)
  average eigenvalue GAMMA=   6.3351
 41.7213 18.6915  9.5494  9.5494  4.1197  2.6388  1.1948  1.1948  0.9523  0.9523
  1.0260  0.9712  0.8424  0.8424  0.7797

 Free energy of the ion-electron system (eV)
  ---------------------------------------------------
  alpha Z        PSCENC =       440.46436163
  Ewald energy   TEWEN  =     -5918.72318115
  -Hartree energ DENC   =     -1935.79814515
  -exchange      EXHF   =         0.00000000
  -V(xc)+E(xc)   XCENC  =       269.29439292
  PAW double counting   =      9592.73565208    -9472.82564396
  entropy T*S    EENTRO =        -0.01179851
  eigenvalues    EBANDS =      -507.52734950
  atomic energy  EATOM  =      7429.00326683
  Solvation  Ediel_sol  =         0.00000000
  ---------------------------------------------------
  free energy    TOTEN  =      -103.38844481 eV

  energy without entropy =     -103.37664630  energy(sigma->0) =     -103.38254555


--------------------------------------------------------------------------------------------------------




--------------------------------------- Iteration      1(  21)  ---------------------------------------


    POTLOK:  cpu time    0.0240: real time    0.0304
    SETDIJ:  cpu time    0.6080: real time    0.6078
     EDDAV:  cpu time    0.3080: real time    0.3077
       DOS:  cpu time    0.0040: real time    0.0045
    CHARGE:  cpu time    0.0200: real time    0.0220
    MIXING:  cpu time    0.0080: real time    0.0047
    --------------------------------------------
      LOOP:  cpu time    0.9720: real time    0.9770

 eigenvalue-minimisations  :  8456
 total energy-change (2. order) : 0.6057233E-01  (-0.9223801E-02)
 number of electron     107.9999835 magnetization      -0.0617951
 augmentation part       17.1039197 magnetization       0.0325514

 Broyden mixing:
  rms(total) = 0.16821E+00    rms(broyden)= 0.16821E+00
  rms(prec ) = 0.18759E+00
  weight for this iteration     100.00

 eigenvalues of (default mixing * dielectric matrix)
  average eigenvalue GAMMA=   6.0113
 35.5183 18.5225 13.6547 12.1068  4.1323  2.6505  1.2446  1.2446  1.0850  0.9609
  0.9609  0.9332  0.8600  0.8600  0.7969  0.6497

 Free energy of the ion-electron system (eV)
  ---------------------------------------------------
  alpha Z        PSCENC =       440.46436163
  Ewald energy   TEWEN  =     -5918.72318115
  -Hartree energ DENC   =     -1943.79339003
  -exchange      EXHF   =         0.00000000
  -V(xc)+E(xc)   XCENC  =       269.73992044
  PAW double counting   =      9665.75545335    -9545.97235232
  entropy T*S    EENTRO =        -0.01160291
  eigenvalues    EBANDS =      -499.79034833
  atomic energy  EATOM  =      7429.00326683
  Solvation  Ediel_sol  =         0.00000000
  ---------------------------------------------------
  free energy    TOTEN  =      -103.32787248 eV

  energy without entropy =     -103.31626957  energy(sigma->0) =     -103.32207103


--------------------------------------------------------------------------------------------------------




--------------------------------------- Iteration      1(  22)  ---------------------------------------


    POTLOK:  cpu time    0.0280: real time    0.0285
    SETDIJ:  cpu time    0.6040: real time    0.6072
     EDDAV:  cpu time    0.3040: real time    0.3041
       DOS:  cpu time    0.0040: real time    0.0032
    CHARGE:  cpu time    0.0200: real time    0.0203
    MIXING:  cpu time    0.0040: real time    0.0046
    --------------------------------------------
      LOOP:  cpu time    0.9640: real time    0.9679

 eigenvalue-minimisations  :  8056
 total energy-change (2. order) : 0.1037244E-01  (-0.3884367E-02)
 number of electron     107.9999835 magnetization      -0.0632160
 augmentation part       17.0712021 magnetization      -0.0590395

 Broyden mixing:
  rms(total) = 0.83214E-01    rms(broyden)= 0.83197E-01
  rms(prec ) = 0.90804E-01
  weight for this iteration     100.00

 eigenvalues of (default mixing * dielectric matrix)
  average eigenvalue GAMMA=   5.7215
 35.6690 17.7450 15.3886 11.4363  4.1309  2.6551  1.2318  1.2318  0.9604  0.9604
  1.0436  0.9422  0.8599  0.8599  0.7983  0.6843  0.6683

 Free energy of the ion-electron system (eV)
  ---------------------------------------------------
  alpha Z        PSCENC =       440.46436163
  Ewald energy   TEWEN  =     -5918.72318115
  -Hartree energ DENC   =     -1948.25204031
  -exchange      EXHF   =         0.00000000
  -V(xc)+E(xc)   XCENC  =       269.99878794
  PAW double counting   =      9685.47254848    -9565.64786534
  entropy T*S    EENTRO =        -0.01154903
  eigenvalues    EBANDS =      -495.62182910
  atomic energy  EATOM  =      7429.00326683
  Solvation  Ediel_sol  =         0.00000000
  ---------------------------------------------------
  free energy    TOTEN  =      -103.31750004 eV

  energy without entropy =     -103.30595101  energy(sigma->0) =     -103.31172553


--------------------------------------------------------------------------------------------------------




--------------------------------------- Iteration      1(  23)  ---------------------------------------


    POTLOK:  cpu time    0.0240: real time    0.0286
    SETDIJ:  cpu time    0.6080: real time    0.6078
     EDDAV:  cpu time    0.3240: real time    0.3247
       DOS:  cpu time    0.0040: real time    0.0034
    CHARGE:  cpu time    0.0200: real time    0.0206
    MIXING:  cpu time    0.0080: real time    0.0047
    --------------------------------------------
      LOOP:  cpu time    0.9880: real time    0.9899

 eigenvalue-minimisations  :  9040
 total energy-change (2. order) : 0.2419630E-03  (-0.1533060E-03)
 number of electron     107.9999835 magnetization      -0.0514202
 augmentation part       17.0667206 magnetization      -0.0468726

 Broyden mixing:
  rms(total) = 0.76028E-01    rms(broyden)= 0.76027E-01
  rms(prec ) = 0.82504E-01
  weight for this iteration     100.00

 eigenvalues of (default mixing * dielectric matrix)
  average eigenvalue GAMMA=   5.5286
 35.2943 16.5352 16.5352 11.9938  4.1303  2.6452  1.3372  1.3372  1.2881  1.2881
  0.9604  0.9604  1.0282  0.9557  0.8670  0.8670  0.8031  0.6890

 Free energy of the ion-electron system (eV)
  ---------------------------------------------------
  alpha Z        PSCENC =       440.46436163
  Ewald energy   TEWEN  =     -5918.72318115
  -Hartree energ DENC   =     -1948.51976611
  -exchange      EXHF   =         0.00000000
  -V(xc)+E(xc)   XCENC  =       270.01250461
  PAW double counting   =      9688.81867280    -9569.00703981
  entropy T*S    EENTRO =        -0.01152476
  eigenvalues    EBANDS =      -495.35455212
  atomic energy  EATOM  =      7429.00326683
  Solvation  Ediel_sol  =         0.00000000
  ---------------------------------------------------
  free energy    TOTEN  =      -103.31725808 eV

  energy without entropy =     -103.30573332  energy(sigma->0) =     -103.31149570


--------------------------------------------------------------------------------------------------------




--------------------------------------- Iteration      1(  24)  ---------------------------------------


    POTLOK:  cpu time    0.0240: real time    0.0276
    SETDIJ:  cpu time    0.6080: real time    0.6069
     EDDAV:  cpu time    0.2960: real time    0.2969
       DOS:  cpu time    0.0040: real time    0.0038
    CHARGE:  cpu time    0.0240: real time    0.0212
    MIXING:  cpu time    0.0040: real time    0.0048
    --------------------------------------------
      LOOP:  cpu time    0.9600: real time    0.9611

 eigenvalue-minimisations  :  7952
 total energy-change (2. order) :-0.7746491E-03  (-0.6429572E-04)
 number of electron     107.9999835 magnetization      -0.0179779
 augmentation part       17.0708947 magnetization      -0.0157924

 Broyden mixing:
  rms(total) = 0.68859E-01    rms(broyden)= 0.68858E-01
  rms(prec ) = 0.76559E-01
  weight for this iteration     100.00

 eigenvalues of (default mixing * dielectric matrix)
  average eigenvalue GAMMA=   6.0538
 35.8554 21.3809 18.8188 10.3931 10.3931  4.1309  2.6649  1.3422  1.0916  1.0916
  0.9595  0.9595  0.9677  0.9677  0.8353  0.8353  0.8686  0.7769  0.6897

 Free energy of the ion-electron system (eV)
  ---------------------------------------------------
  alpha Z        PSCENC =       440.46436163
  Ewald energy   TEWEN  =     -5918.72318115
  -Hartree energ DENC   =     -1947.73687920
  -exchange      EXHF   =         0.00000000
  -V(xc)+E(xc)   XCENC  =       269.96715851
  PAW double counting   =      9697.07742210    -9577.25477227
  entropy T*S    EENTRO =        -0.01155532
  eigenvalues    EBANDS =      -496.10385386
  atomic energy  EATOM  =      7429.00326683
  Solvation  Ediel_sol  =         0.00000000
  ---------------------------------------------------
  free energy    TOTEN  =      -103.31803273 eV

  energy without entropy =     -103.30647740  energy(sigma->0) =     -103.31225507


--------------------------------------------------------------------------------------------------------




--------------------------------------- Iteration      1(  25)  ---------------------------------------


    POTLOK:  cpu time    0.0200: real time    0.0271
    SETDIJ:  cpu time    0.6080: real time    0.6080
     EDDAV:  cpu time    0.3120: real time    0.3121
[...]
     30      -2.1529      1.00000
     31      -1.8958      1.00000
     32      -1.4871      1.00000
     33      -1.4300      1.00000
     34      -1.2175      1.00000
     35      -0.8391      1.00000
     36      -0.6219      1.00000
     37      -0.5884      1.00000
     38      -0.3413      1.00000
     39      -0.1241      1.00000
     40      -0.0426      1.00000
     41       0.2997      1.00000
     42       0.4591      1.00000
     43       0.5056      1.00000
     44       0.5837      1.00000
     45       0.7220      1.00000
     46       0.8795      1.00000
     47       1.2808      1.00000
     48       1.2949      1.00000
     49       1.4533      1.00000
     50       1.8272      1.00000
     51       1.9595      1.00000
     52       2.0103      1.00000
     53       2.1896      1.00000
     54       2.8089      0.30378
     55       2.8863      0.00345
     56       3.0717      0.00000
     57       3.4145      0.00000
     58       3.4944      0.00000
     59       3.6695      0.00000
     60       3.7137      0.00000
     61       4.8344      0.00000
     62       5.5249      0.00000
     63       6.2968      0.00000
     64       6.6706      0.00000
     65       6.7307      0.00000
     66       7.3878      0.00000
     67       8.1649      0.00000
     68       8.4184      0.00000
     69      11.3658      0.00000
     70      11.6024      0.00000
     71      14.2899      0.00000
     72      14.3026      0.00000

 k-point    24 :       0.5000    0.5000    0.5000
  band No.  band energies     occupation 
      1     -16.4746      1.00000
      2     -16.4745      1.00000
      3     -16.0847      1.00000
      4     -16.0847      1.00000
      5     -15.6470      1.00000
      6     -15.6469      1.00000
      7     -15.5099      1.00000
      8     -15.5098      1.00000
      9     -15.4676      1.00000
     10     -15.4675      1.00000
     11     -15.0341      1.00000
     12     -15.0340      1.00000
     13      -5.4142      1.00000
     14      -5.4142      1.00000
     15      -5.0397      1.00000
     16      -5.0397      1.00000
     17      -4.8762      1.00000
     18      -4.8761      1.00000
     19      -3.8884      1.00000
     20      -3.8883      1.00000
     21      -3.5901      1.00000
     22      -3.5901      1.00000
     23      -3.4607      1.00000
     24      -3.4607      1.00000
     25      -2.9236      1.00000
     26      -2.9235      1.00000
     27      -2.6294      1.00000
     28      -2.6293      1.00000
     29      -2.1718      1.00000
     30      -2.1717      1.00000
     31      -2.1616      1.00000
     32      -2.1615      1.00000
     33      -1.0799      1.00000
     34      -1.0798      1.00000
     35      -0.5452      1.00000
     36      -0.5451      1.00000
     37      -0.5445      1.00000
     38      -0.5444      1.00000
     39      -0.3751      1.00000
     40      -0.3750      1.00000
     41       0.3670      1.00000
     42       0.3670      1.00000
     43       0.8465      1.00000
     44       0.8465      1.00000
     45       1.0890      1.00000
     46       1.0890      1.00000
     47       1.1608      1.00000
     48       1.1608      1.00000
     49       1.5812      1.00000
     50       1.5813      1.00000
     51       2.2728      1.00000
     52       2.2728      1.00000
     53       2.7609      0.80136
     54       2.7609      0.80105
     55       2.8433      0.06868
     56       2.8434      0.06844
     57       3.0832      0.00000
     58       3.0832      0.00000
     59       3.4989      0.00000
     60       3.4990      0.00000
     61       6.2568      0.00000
     62       6.2568      0.00000
     63       6.2751      0.00000
     64       6.2751      0.00000
     65       6.8724      0.00000
     66       6.8724      0.00000
     67       7.3873      0.00000
     68       7.3873      0.00000
     69      13.5787      0.00000
     70      13.5787      0.00000
     71      13.6730      0.00000
     72      13.6730      0.00000


--------------------------------------------------------------------------------------------------------


 soft charge-density along one line, spin component           1
         0         1         2         3         4         5         6         7         8         9
 total charge-density along one line
 
 soft charge-density along one line, spin component           2
         0         1         2         3         4         5         6         7         8         9
 total charge-density along one line
 
 pseudopotential strength for first ion, spin component:           1
 12.586 -15.347  -0.043   0.000  -0.043   0.053   0.000   0.053
-15.347  18.736   0.055  -0.000   0.055  -0.067  -0.000  -0.067
 -0.043   0.055  -8.872   0.000  -0.025  10.739  -0.000   0.033
  0.000  -0.000   0.000  -8.928   0.000  -0.000  10.813  -0.000
 -0.043   0.055  -0.025   0.000  -8.872   0.033  -0.000  10.739
  0.053  -0.067  10.739  -0.000   0.033 -12.865   0.000  -0.044
  0.000  -0.000  -0.000  10.813  -0.000   0.000 -12.962   0.000
  0.053  -0.067   0.033  -0.000  10.739  -0.044   0.000 -12.865
 pseudopotential strength for first ion, spin component:           2
 12.586 -15.348  -0.043   0.000  -0.043   0.053   0.000   0.053
-15.348  18.737   0.055  -0.000   0.055  -0.067  -0.000  -0.067
 -0.043   0.055  -8.873   0.000  -0.025  10.740  -0.000   0.033
  0.000  -0.000   0.000  -8.928   0.000  -0.000  10.813  -0.000
 -0.043   0.055  -0.025   0.000  -8.873   0.033  -0.000  10.740
  0.053  -0.067  10.740  -0.000   0.033 -12.866   0.000  -0.044
  0.000  -0.000  -0.000  10.813  -0.000   0.000 -12.962   0.000
  0.053  -0.067   0.033  -0.000  10.740  -0.044   0.000 -12.866
 total augmentation occupancy for first ion, spin component:           1
  2.456   0.270   0.143  -0.000   0.143   0.053  -0.000   0.053
  0.270   0.073   0.163  -0.000   0.163   0.025  -0.000   0.025
  0.143   0.163   1.880   0.000   0.024   0.157  -0.000   0.039
 -0.000  -0.000   0.000   2.000   0.000  -0.000   0.260  -0.000
  0.143   0.163   0.024   0.000   1.880   0.039  -0.000   0.157
  0.053   0.025   0.157  -0.000   0.039   0.022  -0.000   0.007
 -0.000  -0.000  -0.000   0.260  -0.000  -0.000   0.040  -0.000
  0.053   0.025   0.039  -0.000   0.157   0.007  -0.000   0.022
 total augmentation occupancy for first ion, spin component:           2
  0.000   0.000   0.000   0.000   0.000   0.000  -0.000   0.000
  0.000   0.000   0.000   0.000   0.000   0.000   0.000   0.000
  0.000   0.000  -0.000  -0.000   0.000   0.000   0.000  -0.000
  0.000   0.000  -0.000  -0.000  -0.000  -0.000   0.000  -0.000
  0.000   0.000   0.000  -0.000  -0.000  -0.000   0.000   0.000
  0.000   0.000   0.000  -0.000  -0.000   0.000  -0.000  -0.000
 -0.000   0.000   0.000   0.000   0.000  -0.000   0.000  -0.000
  0.000   0.000  -0.000  -0.000   0.000  -0.000  -0.000   0.000


------------------------ aborting loop because EDIFF is reached ----------------------------------------



 DIPCOR: dipole corrections for dipol
 direction  3 min pos     1,
 dipolmoment           0.000000      0.000000      0.000396 electrons x Angstroem
 Tr[quadrupol]      -523.605589

 energy correction for charged system         0.000000 eV
 dipol+quadrupol energy correction            0.000000 eV
 added-field ion interaction          0.000000 eV  (added to PSCEN)

 
  *************** adding dipol energy to TOTEN NOW **************** 
 


 total charge     
 
# of ion       s       p       d       tot
------------------------------------------
    1        1.593   3.339   0.000   4.932
    2        1.593   3.339   0.000   4.932
    3        1.593   3.339   0.000   4.932
    4        1.593   3.339   0.000   4.932
    5        1.581   3.377   0.000   4.958
    6        1.581   3.377   0.000   4.958
    7        1.581   3.380   0.000   4.961
    8        1.581   3.374   0.000   4.955
    9        1.581   3.374   0.000   4.955
   10        1.581   3.380   0.000   4.961
   11        1.581   3.377   0.000   4.958
   12        1.581   3.377   0.000   4.958
   13        0.702   1.041   6.666   8.409
   14        0.702   1.041   6.666   8.409
   15        0.702   1.041   6.666   8.409
   16        0.702   1.041   6.666   8.409
--------------------------------------------------
tot         21.830  44.536  26.666  93.032
 


 magnetization (x)
 
# of ion       s       p       d       tot
------------------------------------------
    1       -0.000  -0.000   0.000  -0.000
    2       -0.000  -0.000   0.000  -0.000
    3       -0.000  -0.000   0.000  -0.000
    4       -0.000  -0.000   0.000  -0.000
    5        0.000   0.000   0.000   0.000
    6        0.000   0.000   0.000   0.000
    7        0.000   0.000   0.000   0.000
    8        0.000   0.000   0.000   0.000
    9        0.000   0.000   0.000   0.000
   10        0.000   0.000   0.000   0.000
   11        0.000   0.000   0.000   0.000
   12        0.000   0.000   0.000   0.000
   13       -0.000  -0.000  -0.000  -0.000
   14       -0.000  -0.000  -0.000  -0.000
   15       -0.000  -0.000  -0.000  -0.000
   16       -0.000  -0.000  -0.000  -0.000
--------------------------------------------------
tot          0.000  -0.000  -0.000  -0.000
 
    CHARGE:  cpu time    0.0200: real time    0.0204
    FORLOC:  cpu time    0.0000: real time    0.0014
    FORNL :  cpu time    0.0720: real time    0.0703
    STRESS:  cpu time    0.2160: real time    0.2142
    FORCOR:  cpu time    0.0200: real time    0.0215
    FORHAR:  cpu time    0.0080: real time    0.0048
    MIXING:  cpu time    0.0040: real time    0.0042
    OFIELD:  cpu time    0.0000: real time    0.0001

  FORCE on cell =-STRESS in cart. coord.  units (eV):
  Direction    XX          YY          ZZ          XY          YZ          ZX
  --------------------------------------------------------------------------------------
  Alpha Z   440.46436   440.46436   440.46436
  Ewald   -2049.49784 -2049.49784 -1823.09644     0.00315     0.00205     0.00205
  Hartree   626.09952   626.09952   694.72831    -0.00059     0.00095     0.00095
  E(xc)    -520.25593  -520.25593  -520.61122     0.00010     0.00001     0.00001
  Local    -473.36029  -473.36029  -754.04371     0.00011    -0.00276    -0.00276
  n-local  -277.50785  -274.66431  -272.17795     0.00003     0.02317    -0.02405
  augment   228.08660   228.08660   229.45964    -0.00032     0.00002     0.00002
  Kinetic  2024.06072  2023.75927  2005.03716    -0.00153    -0.11399     0.11393
  Fock        0.00000     0.00000     0.00000     0.00000     0.00000     0.00000
  -------------------------------------------------------------------------------------
  Total      -0.63964    -0.63964    -0.23985     0.00096     0.00013     0.00013
  in kB      -5.32654    -5.32654    -1.99733     0.00797     0.00110     0.00110
  external pressure =       -4.22 kB  Pullay stress =        0.00 kB


 VOLUME and BASIS-vectors are now :
 -----------------------------------------------------------------------------
  energy-cutoff  :      500.00
  volume of cell :      192.40
      direct lattice vectors                 reciprocal lattice vectors
     4.696350000  0.000000000  0.000000000     0.212931319 -0.000000372  0.000000000
     0.000008197  4.696350000  0.000000000     0.000000000  0.212931319  0.000000000
     0.000000000  0.000000000  8.723350000     0.000000000  0.000000000  0.114634859

  length of vectors
     4.696350000  4.696350000  8.723350000     0.212931319  0.212931319  0.114634859


 FORCES acting on ions
    electron-ion (+dipol)            ewald-force                    non-local-force                 convergence-correction
 -----------------------------------------------------------------------------------------------
   0.132E+03 0.132E+03 -.169E-01   -.153E+03 -.153E+03 0.188E-01   0.208E+02 0.208E+02 -.844E-03   -.122E-01 -.122E-01 -.849E-03
   -.133E+03 -.133E+03 -.137E-01   0.153E+03 0.153E+03 0.142E-01   -.208E+02 -.208E+02 -.411E-03   0.122E-01 0.122E-01 -.151E-03
   -.132E+03 0.132E+03 0.145E-01   0.153E+03 -.153E+03 -.154E-01   -.208E+02 0.208E+02 0.320E-03   0.122E-01 -.121E-01 0.717E-03
   0.132E+03 -.132E+03 0.145E-01   -.153E+03 0.153E+03 -.154E-01   0.208E+02 -.208E+02 0.320E-03   -.121E-01 0.122E-01 0.717E-03
   0.352E+02 0.352E+02 0.101E+03   -.409E+02 -.409E+02 -.120E+03   0.569E+01 0.569E+01 0.191E+02   0.228E-02 0.228E-02 0.526E-01
   -.352E+02 -.352E+02 0.101E+03   0.409E+02 0.409E+02 -.120E+03   -.569E+01 -.569E+01 0.191E+02   -.214E-02 -.214E-02 0.527E-01
   -.352E+02 0.352E+02 0.101E+03   0.409E+02 -.409E+02 -.120E+03   -.569E+01 0.569E+01 0.191E+02   -.223E-02 0.238E-02 0.527E-01
   0.352E+02 -.352E+02 0.101E+03   -.409E+02 0.409E+02 -.120E+03   0.569E+01 -.569E+01 0.191E+02   0.238E-02 -.223E-02 0.527E-01
   -.352E+02 0.352E+02 -.101E+03   0.409E+02 -.409E+02 0.120E+03   -.569E+01 0.569E+01 -.191E+02   -.140E-02 0.190E-02 -.535E-01
   0.352E+02 -.352E+02 -.101E+03   -.409E+02 0.409E+02 0.120E+03   0.569E+01 -.569E+01 -.191E+02   0.190E-02 -.140E-02 -.535E-01
   0.352E+02 0.352E+02 -.101E+03   -.409E+02 -.409E+02 0.120E+03   0.569E+01 0.569E+01 -.191E+02   0.300E-02 0.300E-02 -.518E-01
   -.352E+02 -.352E+02 -.101E+03   0.409E+02 0.409E+02 0.120E+03   -.569E+01 -.569E+01 -.191E+02   -.265E-02 -.265E-02 -.515E-01
   0.321E-02 0.321E-02 -.409E+02   -.422E-02 -.422E-02 0.408E+02   -.333E-03 -.333E-03 0.935E-01   0.958E-03 0.958E-03 0.151E-01
   0.498E-02 0.498E-02 -.409E+02   -.553E-02 -.553E-02 0.408E+02   -.226E-03 -.226E-03 0.932E-01   0.619E-03 0.619E-03 0.161E-01
   0.138E-02 0.138E-02 0.409E+02   -.103E-02 -.103E-02 -.408E+02   -.270E-04 -.270E-04 -.939E-01   -.302E-03 -.302E-03 -.118E-01
   0.169E-02 0.169E-02 0.409E+02   -.199E-02 -.199E-02 -.408E+02   -.204E-03 -.204E-03 -.935E-01   0.234E-03 0.234E-03 -.170E-01
 -----------------------------------------------------------------------------------------------
   0.735E-03 0.735E-03 -.242E-02   -.214E-13 0.419E-14 0.284E-13   -.435E-02 -.435E-02 -.548E-03   0.279E-02 0.279E-02 0.340E-02
 
 
 POSITION                                       TOTAL-FORCE (eV/Angst)
 -----------------------------------------------------------------------------------
      3.85247      3.85246     -0.00001        -0.011509     -0.011509      0.000103
      0.84384      0.84384     -0.00000         0.011790      0.011790     -0.000053
      3.19204      1.50431      4.36169         0.011720     -0.011777      0.000156
      1.50431      3.19203      4.36169        -0.011777      0.011720      0.000156
      0.99517      0.99517      5.88477        -0.003758     -0.003758     -0.000562
      3.70116      3.70115      5.88477         0.004045      0.004045     -0.000458
      1.35302      3.34333      1.52296         0.003902     -0.003908      0.000349
      3.34333      1.35302      1.52296        -0.003908      0.003902      0.000349
      1.35299      3.34336      7.20028         0.003822     -0.003907      0.000602
      3.34336      1.35299      7.20028        -0.003907      0.003822      0.000602
      0.99515      0.99515      2.83869        -0.003764     -0.003764     -0.000168
      3.70119      3.70119      2.83870         0.003938      0.003938     -0.000293
     -0.00000     -0.00000      1.52994        -0.000340     -0.000340      0.003402
      2.34817      2.34817      5.89164        -0.000104     -0.000104      0.002880
      2.34817      2.34817      2.83176         0.000077      0.000077     -0.003952
     -0.00001     -0.00001      7.19341        -0.000226     -0.000226     -0.003112
 -----------------------------------------------------------------------------------
    total drift:                               -0.000828     -0.000828      0.000433


--------------------------------------------------------------------------------------------------------



  FREE ENERGIE OF THE ION-ELECTRON SYSTEM (eV)
  ---------------------------------------------------
  free  energy   TOTEN  =      -103.32013902 eV

  energy  without entropy=     -103.30796411  energy(sigma->0) =     -103.31405157
 
 d Force = 0.1304313E-03[ 0.237E-04, 0.237E-03]  d Energy = 0.1627293E-03-0.323E-04
 d Force = 0.1566408E+01[ 0.157E+01, 0.157E+01]  d Ewald  = 0.1566409E+01-0.123E-05


--------------------------------------------------------------------------------------------------------


    POTLOK:  cpu time    0.6320: real time    0.6331


--------------------------------------------------------------------------------------------------------


 Conjugate gradient step on ions:
 trial-energy change:   -0.000163  1 .order   -0.000130   -0.000237   -0.000024
  (g-gl).g = 0.503E-03      g.g   = 0.272E-03  gl.gl    = 0.253E-02
 g(Force)  = 0.272E-03   g(Stress)= 0.000E+00 ortho     =-0.145E-04
 gamma     =   0.19886
 trial     =   0.88179
 opt step  =   0.97982  (harmonic =   0.97982) maximal distance =0.00150513
 next E    =  -103.320108   (d E  =  -0.00013)


--------------------------------------------------------------------------------------------------------


  
 reached required accuracy - stopping structural energy minimisation
 writing wavefunctions
     LOOP+:  cpu time    5.6920: real time    5.7906
    4ORBIT:  cpu time    0.0000: real time    0.0000
 


 total charge     
 
# of ion       s       p       d       tot
------------------------------------------
    1        1.593   3.339   0.000   4.932
    2        1.593   3.339   0.000   4.932
    3        1.593   3.339   0.000   4.932
    4        1.593   3.339   0.000   4.932
    5        1.581   3.377   0.000   4.958
    6        1.581   3.377   0.000   4.958
    7        1.581   3.380   0.000   4.961
    8        1.581   3.374   0.000   4.955
    9        1.581   3.374   0.000   4.955
   10        1.581   3.380   0.000   4.961
   11        1.581   3.377   0.000   4.958
   12        1.581   3.377   0.000   4.958
   13        0.702   1.041   6.666   8.409
   14        0.702   1.041   6.666   8.409
   15        0.702   1.041   6.666   8.409
   16        0.702   1.041   6.666   8.409
--------------------------------------------------
tot         21.830  44.536  26.666  93.032
 


 magnetization (x)
 
# of ion       s       p       d       tot
------------------------------------------
    1       -0.000  -0.000   0.000  -0.000
    2       -0.000  -0.000   0.000  -0.000
    3       -0.000  -0.000   0.000  -0.000
    4       -0.000  -0.000   0.000  -0.000
    5        0.000   0.000   0.000   0.000
    6        0.000   0.000   0.000   0.000
    7        0.000   0.000   0.000   0.000
    8        0.000   0.000   0.000   0.000
    9        0.000   0.000   0.000   0.000
   10        0.000   0.000   0.000   0.000
   11        0.000   0.000   0.000   0.000
   12        0.000   0.000   0.000   0.000
   13       -0.000  -0.000  -0.000  -0.000
   14       -0.000  -0.000  -0.000  -0.000
   15       -0.000  -0.000  -0.000  -0.000
   16       -0.000  -0.000  -0.000  -0.000
--------------------------------------------------
tot          0.000  -0.000  -0.000  -0.000
 

 total amount of memory used by VASP MPI-rank0    45816. kBytes
=======================================================================

   base      :      30000. kBytes
   nonlr-proj:       1251. kBytes
   fftplans  :        731. kBytes
   grid      :       1853. kBytes
   one-center:         93. kBytes
   wavefun   :      11888. kBytes
 
  
  
 General timing and accounting informations for this job:
 ========================================================
  
                  Total CPU time used (sec):       80.676
                            User time (sec):       72.296
                          System time (sec):        8.380
                         Elapsed time (sec):       85.079
  
                   Maximum memory used (kb):       46928.
                   Average memory used (kb):           0.
  
                          Minor page faults:        13791
                          Major page faults:           23
                 Voluntary context switches:          969
